<?xml version="1.0"?>
<VTKFile type="UnstructuredGrid"  version="0.1"  >
<UnstructuredGrid>
<Piece  NumberOfPoints="597" NumberOfCells="2124">
<Points>
<DataArray  type="Float64"  NumberOfComponents="3"  format="ascii">0 0 0  1 0 0  0 1 0  0 0 1  0.09999999999981467 0 0  0.1999999999995579 0 0  0.2999999999992664 0 0  0.3999999999989749 0 0  0.4999999999986943 0 0  0.5999999999989468 0 0  0.69999999999921 0 0  0.7999999999994734 0 0  0.8999999999997368 0 0  0 0.09999999999981467 0  0 0.1999999999995579 0  0 0.2999999999992664 0  0 0.3999999999989749 0  0 0.4999999999986943 0  0 0.5999999999989468 0  0 0.69999999999921 0  0 0.7999999999994734 0  0 0.8999999999997368 0  0 0 0.09999999999981467  0 0 0.1999999999995579  0 0 0.2999999999992664  0 0 0.3999999999989749  0 0 0.4999999999986943  0 0 0.5999999999989468  0 0 0.69999999999921  0 0 0.7999999999994734  0 0 0.8999999999997368  0.9951847266502585 0.09801714055230534 0  0.9807852803038259 0.1950903225158687 0  0.9569403355024331 0.2902846780119318 0  0.9238795320817892 0.3826834334019886 0  0.8819212636904032 0.4713967380569389 0  0.8314696113679687 0.5555702344182949 0  0.7730104520841969 0.6343932857215511 0  0.7071067795733449 0.7071067827997501 0  0.634393282646958 0.7730104546074502 0  0.5555702316245595 0.8314696132346829 0  0.471396735522105 0.8819212650453002 0  0.3826834312318057 0.9238795329807084 0  0.2902846763682919 0.9569403360010258 0  0.1950903214145686 0.980785280522888 0  0.0980171400302339 0.995184726701678 0  0.9951847266502585 0 0.09801714055230534  0.9807852803038259 0 0.1950903225158687  0.9569403355024331 0 0.2902846780119318  0.9238795320817892 0 0.3826834334019886  0.8819212636904032 0 0.4713967380569389  0.8314696113679687 0 0.5555702344182949  0.7730104520841969 0 0.6343932857215511  0.7071067795733449 0 0.7071067827997501  0.634393282646958 0 0.7730104546074502  0.5555702316245595 0 0.8314696132346829  0.471396735522105 0 0.8819212650453002  0.3826834312318057 0 0.9238795329807084  0.2902846763682919 0 0.9569403360010258  0.1950903214145686 0 0.980785280522888  0.0980171400302339 0 0.995184726701678  0 0.9951847266502585 0.09801714055230534  0 0.9807852803038259 0.1950903225158687  0 0.9569403355024331 0.2902846780119318  0 0.9238795320817892 0.3826834334019886  0 0.8819212636904032 0.4713967380569389  0 0.8314696113679687 0.5555702344182949  0 0.7730104520841969 0.6343932857215511  0 0.7071067795733449 0.7071067827997501  0 0.634393282646958 0.7730104546074502  0 0.5555702316245595 0.8314696132346829  0 0.471396735522105 0.8819212650453002  0 0.3826834312318057 0.9238795329807084  0 0.2902846763682919 0.9569403360010258  0 0.1950903214145686 0.980785280522888  0 0.0980171400302339 0.995184726701678  0.09240154966779951 0 0.3658235692199516  0.07916357488785433 0 0.4469199030523527  0.1536813483092524 0 0.4301465381022301  0.2555379022644893 0 0.09556049568595243  0.1864593291765566 0 0.2034979771761179  0.301651764011142 0 0.1939053326038485  0.1881720785854029 0 0.3302588474155368  0.08403438330774521 0 0.6437268466185475  0.09138388892861184 0 0.5324072873297468  0.1930859140709486 0 0.7878139522981464  0.2165176696171426 0 0.900824597607195  0.292033522918994 0 0.8485491372975176  0.8037370491763215 0 0.0819245024222376  0.13014171782822 0 0.8868491929551598  0.08390174260734276 0 0.8253161934654943  0.0912526277304111 0 0.7448765232291942  0.8893622411880446 0 0.270275215225845  0.8593018882538136 0 0.1801969264281539  0.8024703672696746 0 0.2475353432181931  0.3476914857890963 0 0.4125368919261175  0.2997235777995208 0 0.3096876237048341  0.2490386282757974 0 0.412527605219857  0.4554126154120848 0 0.2518749964366375  0.39715257119151 0 0.3258159451822259  0.4883877361055989 0 0.3266984434363212  0.08966539318254355 0 0.2701713986717769  0.08377502767602918 0 0.164580120521203  0.3869558528229924 0 0.8037364723405749  0.1791913905804899 0 0.6945879747883159  0.1628348997531483 0 0.5951991143072877  0.2434219731662663 0 0.6106761106298939  0.3204481765543245 0 0.6201302437713152  0.2846206283417919 0 0.7159219267704837  0.3832252637688779 0 0.6893291551637116  0.1561812521325313 0 0.09527745928338882  0.8122499659106144 0 0.3273472587872134  0.2026260329838435 0 0.5147603927306801  0.3051207491780334 0 0.5196560474248884  0.5886190882535927 0 0.5879547877726188  0.5628286668856228 0 0.4841066442899339  0.4793970684942127 0 0.5419440173923771  0.4015076433379883 0 0.1595345792024606  0.4550663848726773 0 0.08400234057127416  0.3574412370957718 0 0.08514557536940835  0.4777735346904641 0 0.6420237002140541  0.5886050303809575 0 0.712791733722679  0.7032448955145116 0 0.5547060123784804  0.3710082806848816 0 0.2384994559961529  0.6343947712920404 0 0.1960314230465952  0.7205780420889929 0 0.2811987241304542  0.745939430962431 0 0.1834190974026157  0.6797060130425652 0 0.1027709852058109  0.5617353506566283 0 0.09368054426051139  0.5099863318045709 0 0.1736146479983669  0.767516113391133 0 0.4796577434100839  0.6547738563668709 0 0.4463662193850245  0.4595209371514753 0 0.4253249285837939  0.3873123962753185 0 0.4899626124422253  0.3876250349852705 0 0.5839247669697213  0.07755778095112512 0 0.07322480571131515  0.6662618639536104 0 0.6404224526940073  0.6281317226641706 0 0.5172795154653362  0.5467991787548994 0 0.2775110285514451  0.6382784164401777 0 0.32558335190295  0.7209625386664502 0 0.3760300013763025  0.4777689774710401 0 0.7650512433185178  0.8150026845526732 0 0.4083495007681245  0.5566757769165783 0 0.3852531587967231  0.08307535298787436 0 0.9466352209487393  0.9264479164039098 0 0.09196696687313166  0.2397696045481275 0 0.2516617606603849  0.08142379610690136 0.4255946222877561 0.9012432429190713  0.09186671735860186 0.5103340042487068 0.8550553843753256  0.9658493887414453 0.07517233868428744 0.2479598309495128  0.2588669386047153 0.4173196613385269 0.8711097567802347  0.349931687668115 0.4640670731596268 0.8137503091088829  0.2521091443082024 0.5198490772623717 0.8162094806026494  0.3381706165708041 0.3470207631890471 0.8747669541105296  0.4127313919422814 0.6915412096022421 0.5928098797483512  0.505094034203222 0.6002477622197614 0.6201472732847281  0.5053541985510116 0.6749299798537994 0.5376677936248502  0.5711974176563547 0.6081084457949028 0.5513053856218164  0.2265606352222516 0.3190644824037021 0.9202543858282597  0.1657801920411619 0.4763492767397394 0.8634861287110075  0.1656568208377873 0.3895779149708851 0.9059728836322062  0.501344556404584 0.2277556352228774 0.8347340932223356  0.4415367071350051 0.3068779784495727 0.8431318061816198  0.4059460944519277 0.2465220798785426 0.8800196773547647  0.6196876017566089 0.7450935593761555 0.2466229186537899  0.627698728320387 0.714123017011242 0.3098751733194038  0.6711018023358704 0.69515091935471 0.2576578549585624  0.5155953815884997 0.3094099022200982 0.7990162169147497  0.899989132227882 0.4289906012996104 0.07737328911389559  0.9382293875188548 0.3361973257557999 0.08183504475860598  0.2363183186651487 0.9697312279355392 0.06144101097726593  0.2993323950146074 0.9481462475789452 0.106858834434898  0.3101615066201264 0.2414838162804179 0.9195028038487859  0.4482922838801319 0.1771577048152243 0.8761559084079369  0.5266326972169642 0.1057746683003005 0.8434866458741044  0.4200451415729211 0.09020206018716082 0.9030092288448531  0.7623891105001969 0.5843698709159578 0.2779832695620105  0.7799115838824263 0.596929282445646 0.1881843592994147  0.7264879983305693 0.6504346235700518 0.2216979673856474  0.8178732076005444 0.5297083005156807 0.2247054353013872  0.08303734348179403 0.1922053315992417 0.9778353184930026  0.09408269694107538 0.07627092328721888 0.9926385003601306  0.1760515877647063 0.1196852712822077 0.9770779264130525  0.5576143975194612 0.3637809431371279 0.7461431558952143  0.4455986119305068 0.3912097319557027 0.8052309126385754  0.8060332204752099 0.4925189261569118 0.3282309474556054  0.7346451337886817 0.5624574787189985 0.379391765901261  0.642508165502269 0.2904084282097414 0.7091164940174894  0.7030254185009037 0.306273768786429 0.6418345888895255  0.6340141384684502 0.3769833468372913 0.6752108029567235  0.365152486570974 0.1655128603952953 0.9161163433728284  0.5962792236506059 0.542109883053058 0.5920877993497508  0.5485896415631504 0.5085733599282969 0.6636283167111371  0.5920678220815722 0.6464708649476155 0.4811768020483384  0.1878625042731283 0.2239323962641036 0.9563273296270713  0.1024217313722561 0.3092935774102874 0.9454349644028699  0.2334505071908325 0.06487815783086033 0.9702018786463037  0.4887206245964966 0.8674866792832123 0.09283863613924619  0.5742874233407752 0.8143734795796027 0.08360497084518105  0.9317006522490203 0.08389294215323394 0.3534060962343804  0.951181716421189 0.1590863374964037 0.2644709427669156  0.5455072387620422 0.7115493400103802 0.4428536882413925  0.9076276342048921 0.3867895805147213 0.1631131448807132  0.8905082493452895 0.127913990281725 0.4366154703376809  0.9096700297655037 0.1954608695184058 0.3664634844476816  0.4909557921631998 0.4638599224188366 0.7374255098075979  0.4820557633059458 0.5398846258057163 0.6900339353119844  0.4181956098394346 0.5173376920524271 0.7466419116905315  0.7346402167242096 0.09513558808181954 0.67175365414096  0.8078263850243458 0.09713596463829366 0.5813614504181416  0.2601336813274003 0.1475738587985683 0.954228706358363  0.3264256065230105 0.07648882390671821 0.9421230191559125  0.4590556119879899 0.7423895417623142 0.4879812633537003  0.6126112913498895 0.686574629053208 0.3915644065170771  0.6684671903139626 0.6091898762120843 0.4266606499250449  0.6977699223891808 0.542245960309553 0.4680667195357594  0.7549550374165268 0.4843931863016896 0.4420476586793638  0.07712060794257616 0.6883652307079324 0.7212528828247291  0.1027005936763692 0.7518617879958691 0.6512729380299598  0.9625479306552708 0.2091983633587219 0.1724457188778192  0.9825939555666527 0.1641265719497667 0.08701486576382911  0.964839163020035 0.2492141217550538 0.08353269432177644  0.97740960683
[...]
<PointData  Scalars="Fluid Pressure [Pa]"> 
<DataArray  type="Float64"  Name="Fluid Pressure [Pa]"  format="ascii">3.0241224852606273e+09  0.0000000000000000e+00  0.0000000000000000e+00  0.0000000000000000e+00  2.9766462478545594e+09  2.8580816714693184e+09  2.6725205421637015e+09  2.4107204568981047e+09  2.0868076344578443e+09  1.7145301847212236e+09  1.2974697043601706e+09  8.5777943220384789e+08  4.2190523399503583e+08  2.9756248161583476e+09  2.8625709641829376e+09  2.6714349499703703e+09  2.4088092480559192e+09  2.0866801680711637e+09  1.7188309066745687e+09  1.2955070028407109e+09  8.5677168131460869e+08  4.2473050938908231e+08  2.9749547929716215e+09  2.8597258187891393e+09  2.6741606430413084e+09  2.4091359059680319e+09  2.0866363124058475e+09  1.7125330784867680e+09  1.3049389823521671e+09  8.5525439080409312e+08  4.2012723364015824e+08  0.0000000000000000e+00  0.0000000000000000e+00  0.0000000000000000e+00  0.0000000000000000e+00  0.0000000000000000e+00  0.0000000000000000e+00  0.0000000000000000e+00  0.0000000000000000e+00  0.0000000000000000e+00  0.0000000000000000e+00  0.0000000000000000e+00  0.0000000000000000e+00  0.0000000000000000e+00  0.0000000000000000e+00  0.0000000000000000e+00  0.0000000000000000e+00  0.0000000000000000e+00  0.0000000000000000e+00  0.0000000000000000e+00  0.0000000000000000e+00  0.0000000000000000e+00  0.0000000000000000e+00  0.0000000000000000e+00  0.0000000000000000e+00  0.0000000000000000e+00  0.0000000000000000e+00  0.0000000000000000e+00  0.0000000000000000e+00  0.0000000000000000e+00  0.0000000000000000e+00  0.0000000000000000e+00  0.0000000000000000e+00  0.0000000000000000e+00  0.0000000000000000e+00  0.0000000000000000e+00  0.0000000000000000e+00  0.0000000000000000e+00  0.0000000000000000e+00  0.0000000000000000e+00  0.0000000000000000e+00  0.0000000000000000e+00  0.0000000000000000e+00  0.0000000000000000e+00  0.0000000000000000e+00  0.0000000000000000e+00  2.4880709724668522e+09  2.2463006056164284e+09  2.2478325126969485e+09  2.7441789591874070e+09  2.7231500275981975e+09  2.5414253003365817e+09  2.4758217167127218e+09  1.5239824213418930e+09  1.9554343047160966e+09  8.1876205094942355e+08  3.1352045417490172e+08  4.3175440374557185e+08  8.3266102531450129e+08  4.3899098094162214e+08  7.3012604256492746e+08  1.0822093624035819e+09  3.0313462467943984e+08  5.1509327799060822e+08  6.8965708022555721e+08  1.9654060984563074e+09  2.3235075410656867e+09  2.1601352186767869e+09  2.0195629568599918e+09  2.0548095010836561e+09  1.7665934666812842e+09  2.7229908381130300e+09  2.8911298002037215e+09  4.6540403533601761e+08  1.2287388052516947e+09  1.6516125852236950e+09  1.4846191449290409e+09  1.3161199646448863e+09  1.0024965216964780e+09  9.2272049082443476e+08  2.8960494219594097e+09  5.3081249969680995e+08  1.9013033324601593e+09  1.7051596153424747e+09  7.2679929941071296e+08  1.1184753563626289e+09  1.1987239474075894e+09  2.3153218249448709e+09  2.2207842764296436e+09  2.5195627129863138e+09  8.6682078028435647e+08  3.1688161407025987e+08  4.4619460063949460e+08  2.2930792995435672e+09  1.4581070101813753e+09  9.7953269611174345e+08  1.0097017206629348e+09  1.3582715260899637e+09  1.8444643468504744e+09  1.9566382796026874e+09  3.9614672585314465e+08  8.9825076801410091e+08  1.6235309193698654e+09  1.6198425706703441e+09  1.2953707615984585e+09  2.9806211944759254e+09  3.2518637478366804e+08  7.9977119848512495e+08  1.6738762758512073e+09  1.2391568874846003e+09  8.1852806373535633e+08  4.2867376660038114e+08  3.7154709615123135e+08  1.4037828101911852e+09  2.0835091856531426e+08  2.9370809727844000e+08  2.5585424465881495e+09  0.0000000000000000e+00  0.0000000000000000e+00  0.0000000000000000e+00  0.0000000000000000e+00  0.0000000000000000e+00  0.0000000000000000e+00  0.0000000000000000e+00  0.0000000000000000e+00  0.0000000000000000e+00  0.0000000000000000e+00  0.0000000000000000e+00  0.0000000000000000e+00  0.0000000000000000e+00  0.0000000000000000e+00  0.0000000000000000e+00  0.0000000000000000e+00  0.0000000000000000e+00  0.0000000000000000e+00  0.0000000000000000e+00  0.0000000000000000e+00  0.0000000000000000e+00  0.0000000000000000e+00  0.0000000000000000e+00  0.0000000000000000e+00  0.0000000000000000e+00  0.0000000000000000e+00  0.0000000000000000e+00  0.0000000000000000e+00  0.0000000000000000e+00  0.0000000000000000e+00  0.0000000000000000e+00  0.0000000000000000e+00  0.0000000000000000e+00  0.0000000000000000e+00  0.0000000000000000e+00  0.0000000000000000e+00  0.0000000000000000e+00  0.0000000000000000e+00  0.0000000000000000e+00  0.0000000000000000e+00  0.0000000000000000e+00  0.0000000000000000e+00  0.0000000000000000e+00  0.0000000000000000e+00  0.0000000000000000e+00  0.0000000000000000e+00  0.0000000000000000e+00  0.0000000000000000e+00  0.0000000000000000e+00  0.0000000000000000e+00  0.0000000000000000e+00  0.0000000000000000e+00  0.0000000000000000e+00  0.0000000000000000e+00  0.0000000000000000e+00  0.0000000000000000e+00  0.0000000000000000e+00  0.0000000000000000e+00  0.0000000000000000e+00  0.0000000000000000e+00  0.0000000000000000e+00  0.0000000000000000e+00  0.0000000000000000e+00  0.0000000000000000e+00  0.0000000000000000e+00  0.0000000000000000e+00  0.0000000000000000e+00  0.0000000000000000e+00  0.0000000000000000e+00  0.0000000000000000e+00  0.0000000000000000e+00  0.0000000000000000e+00  0.0000000000000000e+00  0.0000000000000000e+00  0.0000000000000000e+00  0.0000000000000000e+00  0.0000000000000000e+00  0.0000000000000000e+00  0.0000000000000000e+00  0.0000000000000000e+00  0.0000000000000000e+00  0.0000000000000000e+00  0.0000000000000000e+00  0.0000000000000000e+00  0.0000000000000000e+00  0.0000000000000000e+00  0.0000000000000000e+00  0.0000000000000000e+00  0.0000000000000000e+00  0.0000000000000000e+00  0.0000000000000000e+00  0.0000000000000000e+00  0.0000000000000000e+00  0.0000000000000000e+00  0.0000000000000000e+00  0.0000000000000000e+00  0.0000000000000000e+00  0.0000000000000000e+00  0.0000000000000000e+00  0.0000000000000000e+00  0.0000000000000000e+00  0.0000000000000000e+00  0.0000000000000000e+00  0.0000000000000000e+00  0.0000000000000000e+00  0.0000000000000000e+00  0.0000000000000000e+00  0.0000000000000000e+00  0.0000000000000000e+00  0.0000000000000000e+00  0.0000000000000000e+00  0.0000000000000000e+00  0.0000000000000000e+00  0.0000000000000000e+00  0.0000000000000000e+00  0.0000000000000000e+00  0.0000000000000000e+00  0.0000000000000000e+00  0.0000000000000000e+00  0.0000000000000000e+00  0.0000000000000000e+00  0.0000000000000000e+00  0.0000000000000000e+00  0.0000000000000000e+00  0.0000000000000000e+00  0.0000000000000000e+00  0.0000000000000000e+00  0.0000000000000000e+00  0.0000000000000000e+00  0.0000000000000000e+00  0.0000000000000000e+00  0.0000000000000000e+00  0.0000000000000000e+00  0.0000000000000000e+00  0.0000000000000000e+00  0.0000000000000000e+00  0.0000000000000000e+00  0.0000000000000000e+00  0.0000000000000000e+00  0.0000000000000000e+00  0.0000000000000000e+00  0.0000000000000000e+00  0.0000000000000000e+00  0.0000000000000000e+00  0.0000000000000000e+00  0.0000000000000000e+00  0.0000000000000000e+00  0.0000000000000000e+00  0.0000000000000000e+00  0.0000000000000000e+00  0.0000000000000000e+00  0.0000000000000000e+00  0.0000000000000000e+00  0.0000000000000000e+00  0.0000000000000000e+00  0.0000000000000000e+00  0.0000000000000000e+00  0.0000000000000000e+00  0.0000000000000000e+00  0.0000000000000000e+00  0.0000000000000000e+00  0.0000000000000000e+00  0.0000000000000000e+00  0.0000000000000000e+00  3.1005234887310982e+08  2.8894195294080979e+08  2.3479916661681743e+09  2.5268566482567301e+09  2.5569972530638742e+09  2.7428076928785310e+09  1.8369227328637149e+09  1.4425539312657108e+09  1.7413165400850289e+09  8.6985012496701765e+08  1.0968895202773860e+09  7.5480148377737021e+08  6.8032178700879431e+08  2.4788437292598572e+09  1.4900742178361309e+09  3.9982343703607339e+08  1.3346157666120918e+09  6.4106966076062775e+08  4.0110010844962263e+08  1.0619933231110805e+09  2.8834042668226185e+09  3.6469765706038225e+08  5.2555025692621779e+08  7.3285981620114231e+08  2.4135509294776082e+09  2.6103369386559415e+09  2.3098694300280709e+09  4.3044785612675929e+08  4.0192302575559181e+08  7.2374835765455472e+08  1.1550744286934624e+09  9.4141446361609578e+08  1.4788947844109547e+09  6.5497523574073339e+08  8.9581540109944630e+08  9.9653085676190758e+08  2.7206086160566630e+09  2.8314312400115228e+09  1.0361643363813148e+09  4.2497195130751014e+08  3.9551625903196222e+08  1.3412572401910088e+09  1.3972360900413125e+09  2.1235768589689398e+09  1.9833216880921896e+09  1.6219343425965300e+09  1.3626574249806728e+09  9.1816751598859823e+08  2.9667498410212736e+09  3.6275281136598665e+08  3.1866181616563994e+08  1.1579945703237774e+09  2.5027029211296734e+08  5.8614744598702598e+08  2.2156093499577045e+09  1.8125289784645095e+09  1.8508892226288435e+09  2.0677196433798320e+09  1.4708882061359003e+09  1.7983125958652596e+09  2.2048208442739315e+09  7.7401636308224893e+08  2.6934434731107392e+09  1.6738954550020444e+09  1.1426376694329038e+09  2.0864373825137255e+09  2.0829272196155198e+09  1.7103007396091192e+09  1.1040110642096360e+09  6.9719726434432840e+08  1.4441793107444174e+09  2.4876393589416146e+09  2.2487760384663391e+09  2.2428249982644310e+09  2.7453883695032868e+09  2.7330490023662996e+09  2.5316441339101782e+09  2.4840318514096603e+09  1.5166602912031972e+09  1.9511031530644658e+09  8.1560010820630383e+08  3.1983168918892258e+08  4.4579104120451957e+08  8.3021696278575635e+08  4.4715859812044013e+08  7.3089974797169101e+08  1.0805694766376684e+09  2.9645838388602483e+08  5.1939780275025523e+08  6.9148726645135975e+08  1.9613070707040045e+09  2.3276867634475861e+09  2.1601626353192406e+09  2.0175664194397836e+09  2.0536561789289150e+09  1.7746464299599512e+09  2.7188044701056237e+09  2.8925934770367627e+09  4.6953048958878529e+08  1.2220950180781481e+09  1.6523635080888762e+09  1.4924472356824982e+09  1.3035307373222756e+09  9.9546163797967148e+08  9.2008369079974234e+08  2.8855257982506032e+09  5.2906166863306987e+08  1.9062705816223354e+09  1.7076948954721570e+09  7.2630999904220176e+08  1.1177464107050996e+09  1.1996925312778769e+09  2.3200259229342709e+09  2.2205146258177781e+09  2.5099086865734835e+09  8.6387679543364906e+08  3.2751920588914800e+08  4.4091627538255882e+08  2.2973334263697624e+09  1.4646372341447430e+09  9.9055768995223320e+08  1.0074561063328413e+09  1.3668293463394079e+09  1.8482202467863786e+09  1.9471308042124908e+09  4.1166043959966856e+08  8.9774089640025496e+08  1.6072925199637482e+09  1.6208411187214653e+09  1.2948503845942361e+09  2.9776677202136917e+09  3.2689869159020078e+08  8.0424400893232632e+08  1.6679331647513099e+09  1.2334522234307349e+09  8.1373245846088767e+08  4.1874407545584095e+08  3.7426595349397451e+08  1.4067908713763127e+09  2.1044307415771514e+08  2.9346085631155306e+08  2.5669214684344654e+09  1.5902938866452115e+09  1.1328378724927075e+09  1.1922093086788163e+09  1.1901603993757401e+09  1.1288252944273598e+09  2.4322031721043119e+09  1.0067266508473336e+09  9.1753695483419240e+08  1.9330983848403115e+09  2.0293174761032009e+09  8.2922736174487841e+08  8.5335455808372688e+08  8.5237990952492142e+08  2.0209990826240540e+09  7.5666620196893144e+08  8.3387117986360908e+08  1.7079141750896554e+09  7.9276957350456142e+08  1.8095104578914907e+09  7.9267795881230128e+08  9.4204876821410847e+08  1.5084493814271812e+09  1.8066440261535268e+09  7.2290192066043282e+08  7.1248633502888536e+08  6.5309584160801685e+08  6.8886584318829823e+08  7.4066396925939465e+08  1.6234859972223907e+09  6.8055799473808467e+08  6.6714731134676421e+08  1.4101459645276322e+09  1.6066417499731882e+09  6.8009047194106305e+08  1.4702376761407695e+09  6.6820437249738610e+08  1.5077277793791850e+09  6.4074159169012499e+08  6.5752171144622469e+08  1.5949582565478108e+09  2.2376289004003773e+09  6.6311942316632795e+08  2.7988137024436488e+09  1.3892528668737905e+09  1.2632130169811010e+09  6.4742683633154607e+08  1.5726514421936924e+09  6.0984545121583998e+08  1.3824104580191917e+09  2.5119838904176240e+09  5.8801177795885503e+08  6.2450157619364178e+08  2.3009333917058291e+09  1.2285822155720842e+09  5.4646584499369240e+08  5.9713481743090189e+08  6.3479115651954496e+08  2.4126812212934623e+09  5.9405712398378026e+08  1.4321830157424464e+09  2.0261294149486997e+09  1.8243300573877769e+09  5.7158797004283667e+08  8.2271140337623942e+08  2.5851155472688470e+09  2.0519838646355236e+09  1.2818940216715889e+09  1.2877317258640025e+09  2.2949079268626499e+09  1.2379554489948027e+09  6.1777461768888104e+08  5.3794613811541438e+08  1.3616419092272449e+09  5.4947957341040814e+08  2.0280335733421125e+09  1.2547917131749520e+09  1.1980934755966980e+09  2.1495519372733693e+09  5.0402565568538272e+08  1.1630152717140989e+09  2.2819968837205238e+09  5.5570094092984200e+08  1.1504333292220216e+09  5.8393266881017148e+08  1.1343052972012365e+09  2.5919396312891560e+09  1.5946849776423433e+09  1.2270279560274012e+09  5.3732234715996075e+08  5.3895776682791340e+08  2.0978348372821460e+09  4.9407609322737390e+08  1.0705480672476571e+09  1.2440736593946249e+09  4.4051993549242574e+08  4.9077427900503790e+08  4.8087284870895231e+08  1.2344059613480082e+09  2.1338384077529793e+09  1.1317241166338582e+09  1.2714353041540034e+09  4.6815416897360510e+08  1.8140703427183144e+09  2.6143019589723015e+09  4.5262880479813641e+08  4.9921296791380364e+08  1.9748988917889962e+09  1.8698116442340174e+09  4.6942319405116963e+08  4.4389317848808575e+08  1.0893990661367800e+09  4.7539003776822042e+08  1.0686031406421461e+09  5.1976345493233138e+08  1.6400720349875255e+09  5.8626228564354801e+08  4.6211539953847408e+08  1.8365397028151174e+09  5.2845638420807999e+08  4.8531454973930228e+08  9.3721435177337921e+08  1.8897720308227944e+09  4.3348074821362364e+08  4.3924983055812138e+08  5.6340029201036227e+08  4.7155432557575607e+08  5.1324552399534893e+08  1.6977804157131336e+09  1.2677613234848206e+09  1.0915183872561593e+09  4.5966997789950120e+08  1.5017354057662504e+09  2.5983428514976053e+09  4.3771117742040890e+08  9.3519656678661728e+08  1.7127748896230376e+09  1.0901045880735688e+09  4.3271407617736065e+08  2.0051635762173862e+09  1.0454040871722455e+09  4.7799486116715276e+08  4.6675033693285942e+08  5.3162067770727229e+08  1.4571113490635417e+09  </DataArray> 
</PointData> 
</Piece>
</UnstructuredGrid>
</VTKFile>