<?xml version="1.0"?>
<VTKFile type="UnstructuredGrid"  version="0.1"  >
<UnstructuredGrid>
<Piece  NumberOfPoints="597" NumberOfCells="2124">
<Points>
<DataArray  type="Float64"  NumberOfComponents="3"  format="ascii">0 0 0  1 0 0  0 1 0  0 0 1  0.09999999999981467 0 0  0.1999999999995579 0 0  0.2999999999992664 0 0  0.3999999999989749 0 0  0.4999999999986943 0 0  0.5999999999989468 0 0  0.69999999999921 0 0  0.7999999999994734 0 0  0.8999999999997368 0 0  0 0.09999999999981467 0  0 0.1999999999995579 0  0 0.2999999999992664 0  0 0.3999999999989749 0  0 0.4999999999986943 0  0 0.5999999999989468 0  0 0.69999999999921 0  0 0.7999999999994734 0  0 0.8999999999997368 0  0 0 0.09999999999981467  0 0 0.1999999999995579  0 0 0.2999999999992664  0 0 0.3999999999989749  0 0 0.4999999999986943  0 0 0.5999999999989468  0 0 0.69999999999921  0 0 0.7999999999994734  0 0 0.8999999999997368  0.9951847266502585 0.09801714055230534 0  0.9807852803038259 0.1950903225158687 0  0.9569403355024331 0.2902846780119318 0  0.9238795320817892 0.3826834334019886 0  0.8819212636904032 0.4713967380569389 0  0.8314696113679687 0.5555702344182949 0  0.7730104520841969 0.6343932857215511 0  0.7071067795733449 0.7071067827997501 0  0.634393282646958 0.7730104546074502 0  0.5555702316245595 0.8314696132346829 0  0.471396735522105 0.8819212650453002 0  0.3826834312318057 0.9238795329807084 0  0.2902846763682919 0.9569403360010258 0  0.1950903214145686 0.980785280522888 0  0.0980171400302339 0.995184726701678 0  0.9951847266502585 0 0.09801714055230534  0.9807852803038259 0 0.1950903225158687  0.9569403355024331 0 0.2902846780119318  0.9238795320817892 0 0.3826834334019886  0.8819212636904032 0 0.4713967380569389  0.8314696113679687 0 0.5555702344182949  0.7730104520841969 0 0.6343932857215511  0.7071067795733449 0 0.7071067827997501  0.634393282646958 0 0.7730104546074502  0.5555702316245595 0 0.8314696132346829  0.471396735522105 0 0.8819212650453002  0.3826834312318057 0 0.9238795329807084  0.2902846763682919 0 0.9569403360010258  0.1950903214145686 0 0.980785280522888  0.0980171400302339 0 0.995184726701678  0 0.9951847266502585 0.09801714055230534  0 0.9807852803038259 0.1950903225158687  0 0.9569403355024331 0.2902846780119318  0 0.9238795320817892 0.3826834334019886  0 0.8819212636904032 0.4713967380569389  0 0.8314696113679687 0.5555702344182949  0 0.7730104520841969 0.6343932857215511  0 0.7071067795733449 0.7071067827997501  0 0.634393282646958 0.7730104546074502  0 0.5555702316245595 0.8314696132346829  0 0.471396735522105 0.8819212650453002  0 0.3826834312318057 0.9238795329807084  0 0.2902846763682919 0.9569403360010258  0 0.1950903214145686 0.980785280522888  0 0.0980171400302339 0.995184726701678  0.09240154966779951 0 0.3658235692199516  0.07916357488785433 0 0.4469199030523527  0.1536813483092524 0 0.4301465381022301  0.2555379022644893 0 0.09556049568595243  0.1864593291765566 0 0.2034979771761179  0.301651764011142 0 0.1939053326038485  0.1881720785854029 0 0.3302588474155368  0.08403438330774521 0 0.6437268466185475  0.09138388892861184 0 0.5324072873297468  0.1930859140709486 0 0.7878139522981464  0.2165176696171426 0 0.900824597607195  0.292033522918994 0 0.8485491372975176  0.8037370491763215 0 0.0819245024222376  0.13014171782822 0 0.8868491929551598  0.08390174260734276 0 0.8253161934654943  0.0912526277304111 0 0.7448765232291942  0.8893622411880446 0 0.270275215225845  0.8593018882538136 0 0.1801969264281539  0.8024703672696746 0 0.2475353432181931  0.3476914857890963 0 0.4125368919261175  0.2997235777995208 0 0.3096876237048341  0.2490386282757974 0 0.412527605219857  0.4554126154120848 0 0.2518749964366375  0.39715257119151 0 0.3258159451822259  0.4883877361055989 0 0.3266984434363212  0.08966539318254355 0 0.2701713986717769  0.08377502767602918 0 0.164580120521203  0.3869558528229924 0 0.8037364723405749  0.1791913905804899 0 0.6945879747883159  0.1628348997531483 0 0.5951991143072877  0.2434219731662663 0 0.6106761106298939  0.3204481765543245 0 0.6201302437713152  0.2846206283417919 0 0.7159219267704837  0.3832252637688779 0 0.6893291551637116  0.1561812521325313 0 0.09527745928338882  0.8122499659106144 0 0.3273472587872134  0.2026260329838435 0 0.5147603927306801  0.3051207491780334 0 0.5196560474248884  0.5886190882535927 0 0.5879547877726188  0.5628286668856228 0 0.4841066442899339  0.4793970684942127 0 0.5419440173923771  0.4015076433379883 0 0.1595345792024606  0.4550663848726773 0 0.08400234057127416  0.3574412370957718 0 0.08514557536940835  0.4777735346904641 0 0.6420237002140541  0.5886050303809575 0 0.712791733722679  0.7032448955145116 0 0.5547060123784804  0.3710082806848816 0 0.2384994559961529  0.6343947712920404 0 0.1960314230465952  0.7205780420889929 0 0.2811987241304542  0.745939430962431 0 0.1834190974026157  0.6797060130425652 0 0.1027709852058109  0.5617353506566283 0 0.09368054426051139  0.5099863318045709 0 0.1736146479983669  0.767516113391133 0 0.4796577434100839  0.6547738563668709 0 0.4463662193850245  0.4595209371514753 0 0.4253249285837939  0.3873123962753185 0 0.4899626124422253  0.3876250349852705 0 0.5839247669697213  0.07755778095112512 0 0.07322480571131515  0.6662618639536104 0 0.6404224526940073  0.6281317226641706 0 0.5172795154653362  0.5467991787548994 0 0.2775110285514451  0.6382784164401777 0 0.32558335190295  0.7209625386664502 0 0.3760300013763025  0.4777689774710401 0 0.7650512433185178  0.8150026845526732 0 0.4083495007681245  0.5566757769165783 0 0.3852531587967231  0.08307535298787436 0 0.9466352209487393  0.9264479164039098 0 0.09196696687313166  0.2397696045481275 0 0.2516617606603849  0.08142379610690136 0.4255946222877561 0.9012432429190713  0.09186671735860186 0.5103340042487068 0.8550553843753256  0.9658493887414453 0.07517233868428744 0.2479598309495128  0.2588669386047153 0.4173196613385269 0.8711097567802347  0.349931687668115 0.4640670731596268 0.8137503091088829  0.2521091443082024 0.5198490772623717 0.8162094806026494  0.3381706165708041 0.3470207631890471 0.8747669541105296  0.4127313919422814 0.6915412096022421 0.5928098797483512  0.505094034203222 0.6002477622197614 0.6201472732847281  0.5053541985510116 0.6749299798537994 0.5376677936248502  0.5711974176563547 0.6081084457949028 0.5513053856218164  0.2265606352222516 0.3190644824037021 0.9202543858282597  0.1657801920411619 0.4763492767397394 0.8634861287110075  0.1656568208377873 0.3895779149708851 0.9059728836322062  0.501344556404584 0.2277556352228774 0.8347340932223356  0.4415367071350051 0.3068779784495727 0.8431318061816198  0.4059460944519277 0.2465220798785426 0.8800196773547647  0.6196876017566089 0.7450935593761555 0.2466229186537899  0.627698728320387 0.714123017011242 0.3098751733194038  0.6711018023358704 0.69515091935471 0.2576578549585624  0.5155953815884997 0.3094099022200982 0.7990162169147497  0.899989132227882 0.4289906012996104 0.07737328911389559  0.9382293875188548 0.3361973257557999 0.08183504475860598  0.2363183186651487 0.9697312279355392 0.06144101097726593  0.2993323950146074 0.9481462475789452 0.106858834434898  0.3101615066201264 0.2414838162804179 0.9195028038487859  0.4482922838801319 0.1771577048152243 0.8761559084079369  0.5266326972169642 0.1057746683003005 0.8434866458741044  0.4200451415729211 0.09020206018716082 0.9030092288448531  0.7623891105001969 0.5843698709159578 0.2779832695620105  0.7799115838824263 0.596929282445646 0.1881843592994147  0.7264879983305693 0.6504346235700518 0.2216979673856474  0.8178732076005444 0.5297083005156807 0.2247054353013872  0.08303734348179403 0.1922053315992417 0.9778353184930026  0.09408269694107538 0.07627092328721888 0.9926385003601306  0.1760515877647063 0.1196852712822077 0.9770779264130525  0.5576143975194612 0.3637809431371279 0.7461431558952143  0.4455986119305068 0.3912097319557027 0.8052309126385754  0.8060332204752099 0.4925189261569118 0.3282309474556054  0.7346451337886817 0.5624574787189985 0.379391765901261  0.642508165502269 0.2904084282097414 0.7091164940174894  0.7030254185009037 0.306273768786429 0.6418345888895255  0.6340141384684502 0.3769833468372913 0.6752108029567235  0.365152486570974 0.1655128603952953 0.9161163433728284  0.5962792236506059 0.542109883053058 0.5920877993497508  0.5485896415631504 0.5085733599282969 0.6636283167111371  0.5920678220815722 0.6464708649476155 0.4811768020483384  0.1878625042731283 0.2239323962641036 0.9563273296270713  0.1024217313722561 0.3092935774102874 0.9454349644028699  0.2334505071908325 0.06487815783086033 0.9702018786463037  0.4887206245964966 0.8674866792832123 0.09283863613924619  0.5742874233407752 0.8143734795796027 0.08360497084518105  0.9317006522490203 0.08389294215323394 0.3534060962343804  0.951181716421189 0.1590863374964037 0.2644709427669156  0.5455072387620422 0.7115493400103802 0.4428536882413925  0.9076276342048921 0.3867895805147213 0.1631131448807132  0.8905082493452895 0.127913990281725 0.4366154703376809  0.9096700297655037 0.1954608695184058 0.3664634844476816  0.4909557921631998 0.4638599224188366 0.7374255098075979  0.4820557633059458 0.5398846258057163 0.6900339353119844  0.4181956098394346 0.5173376920524271 0.7466419116905315  0.7346402167242096 0.09513558808181954 0.67175365414096  0.8078263850243458 0.09713596463829366 0.5813614504181416  0.2601336813274003 0.1475738587985683 0.954228706358363  0.3264256065230105 0.07648882390671821 0.9421230191559125  0.4590556119879899 0.7423895417623142 0.4879812633537003  0.6126112913498895 0.686574629053208 0.3915644065170771  0.6684671903139626 0.6091898762120843 0.4266606499250449  0.6977699223891808 0.542245960309553 0.4680667195357594  0.7549550374165268 0.4843931863016896 0.4420476586793638  0.07712060794257616 0.6883652307079324 0.7212528828247291  0.1027005936763692 0.7518617879958691 0.6512729380299598  0.9625479306552708 0.2091983633587219 0.1724457188778192  0.9825939555666527 0.1641265719497667 0.08701486576382911  0.964839163020035 0.2492141217550538 0.08353269432177644  0.97740960683
[...]
<PointData  Vectors="Solid displacement [m]"> 
<DataArray  type="Float64"  Name="Solid displacement [m]"  NumberOfComponents="3" format="ascii">0.0000000000000000e+00 0.0000000000000000e+00 0.0000000000000000e+00  -1.6060689304363207e-01 0.0000000000000000e+00 0.0000000000000000e+00  0.0000000000000000e+00 -1.6060652213303109e-01 0.0000000000000000e+00  0.0000000000000000e+00 0.0000000000000000e+00 -1.6060823655927411e-01  -1.5382251009699329e-02 0.0000000000000000e+00 0.0000000000000000e+00  -3.0823284398221452e-02 0.0000000000000000e+00 0.0000000000000000e+00  -4.6363842436403908e-02 0.0000000000000000e+00 0.0000000000000000e+00  -6.2050892241636402e-02 0.0000000000000000e+00 0.0000000000000000e+00  -7.7925310354370461e-02 0.0000000000000000e+00 0.0000000000000000e+00  -9.4009907164676151e-02 0.0000000000000000e+00 0.0000000000000000e+00  -1.1032245180427409e-01 0.0000000000000000e+00 0.0000000000000000e+00  -1.2686607763261903e-01 0.0000000000000000e+00 0.0000000000000000e+00  -1.4363353149170091e-01 0.0000000000000000e+00 0.0000000000000000e+00  0.0000000000000000e+00 -1.5382907168459295e-02 0.0000000000000000e+00  0.0000000000000000e+00 -3.0819714879604204e-02 0.0000000000000000e+00  0.0000000000000000e+00 -4.6359828885239568e-02 0.0000000000000000e+00  0.0000000000000000e+00 -6.2049984448896339e-02 0.0000000000000000e+00  0.0000000000000000e+00 -7.7924187386290242e-02 0.0000000000000000e+00  0.0000000000000000e+00 -9.4009283714879405e-02 0.0000000000000000e+00  0.0000000000000000e+00 -1.1032163073906821e-01 0.0000000000000000e+00  0.0000000000000000e+00 -1.2686665005939621e-01 0.0000000000000000e+00  0.0000000000000000e+00 -1.4363557254815781e-01 0.0000000000000000e+00  0.0000000000000000e+00 0.0000000000000000e+00 -1.5382533903029995e-02  0.0000000000000000e+00 0.0000000000000000e+00 -3.0822217987106791e-02  0.0000000000000000e+00 0.0000000000000000e+00 -4.6361542055364906e-02  0.0000000000000000e+00 0.0000000000000000e+00 -6.2049284422330084e-02  0.0000000000000000e+00 0.0000000000000000e+00 -7.7924287489220700e-02  0.0000000000000000e+00 0.0000000000000000e+00 -9.4009094494521842e-02  0.0000000000000000e+00 0.0000000000000000e+00 -1.1032044254094824e-01  0.0000000000000000e+00 0.0000000000000000e+00 -1.2686534275597650e-01  0.0000000000000000e+00 0.0000000000000000e+00 -1.4363540381530421e-01  -1.5983389356536862e-01 -1.5743509496486504e-02 0.0000000000000000e+00  -1.5752102155243064e-01 -3.1333676628484949e-02 0.0000000000000000e+00  -1.5369056328170430e-01 -4.6622746493064610e-02 0.0000000000000000e+00  -1.4838001508843926e-01 -6.1461739699769459e-02 0.0000000000000000e+00  -1.4164162944476560e-01 -7.5708554852984319e-02 0.0000000000000000e+00  -1.3354040598511643e-01 -8.9227203010895317e-02 0.0000000000000000e+00  -1.2414874095674056e-01 -1.0189040318596991e-01 0.0000000000000000e+00  -1.1356504707868240e-01 -1.1356831696428622e-01 0.0000000000000000e+00  -1.0188462603687248e-01 -1.2415313425152345e-01 0.0000000000000000e+00  -8.9224493181498443e-02 -1.3354107702664902e-01 0.0000000000000000e+00  -7.5710647177937351e-02 -1.4164021749127345e-01 0.0000000000000000e+00  -6.1458208772301334e-02 -1.4838052463441029e-01 0.0000000000000000e+00  -4.6622084655569995e-02 -1.5368775356999184e-01 0.0000000000000000e+00  -3.1332862882460989e-02 -1.5751959392674617e-01 0.0000000000000000e+00  -1.5744446657075195e-02 -1.5983395421370372e-01 0.0000000000000000e+00  -1.5983444018210549e-01 0.0000000000000000e+00 -1.5743285343265061e-02  -1.5752195598744526e-01 0.0000000000000000e+00 -3.1330242545312081e-02  -1.5369084622888984e-01 0.0000000000000000e+00 -4.6623517729672631e-02  -1.4838426512529818e-01 0.0000000000000000e+00 -6.1457702787397046e-02  -1.4164416418064507e-01 0.0000000000000000e+00 -7.5712634534493006e-02  -1.3353865371902118e-01 0.0000000000000000e+00 -8.9233765344512883e-02  -1.2414964345330662e-01 0.0000000000000000e+00 -1.0188829701818328e-01  -1.1356932771853594e-01 0.0000000000000000e+00 -1.1356403450405084e-01  -1.0188449116908398e-01 0.0000000000000000e+00 -1.2415575645313905e-01  -8.9225816039636696e-02 0.0000000000000000e+00 -1.3353970036600435e-01  -7.5711781486880833e-02 0.0000000000000000e+00 -1.4164063122004050e-01  -6.1464775499701682e-02 0.0000000000000000e+00 -1.4838213579153092e-01  -4.6622321422571521e-02 0.0000000000000000e+00 -1.5369376597587520e-01  -3.1326867334037764e-02 0.0000000000000000e+00 -1.5752301853158610e-01  -1.5743389501532538e-02 0.0000000000000000e+00 -1.5983608093988716e-01  0.0000000000000000e+00 -1.5983240046899122e-01 -1.5749575587646447e-02  0.0000000000000000e+00 -1.5751782099497372e-01 -3.1334145076219871e-02  0.0000000000000000e+00 -1.5368534416025317e-01 -4.6626949871144061e-02  0.0000000000000000e+00 -1.4837901420118998e-01 -6.1459228066502794e-02  0.0000000000000000e+00 -1.4163943151766611e-01 -7.5708634921600182e-02  0.0000000000000000e+00 -1.3354156211172580e-01 -8.9221342631044767e-02  0.0000000000000000e+00 -1.2414844343649928e-01 -1.0188825083405734e-01  0.0000000000000000e+00 -1.1356762759178564e-01 -1.1356157461603263e-01  0.0000000000000000e+00 -1.0188761523061821e-01 -1.2414786822063174e-01  0.0000000000000000e+00 -8.9225558420914175e-02 -1.3353899497206573e-01  0.0000000000000000e+00 -7.5709072189171597e-02 -1.4164061176055892e-01  0.0000000000000000e+00 -6.1458546207512427e-02 -1.4838080149991228e-01  0.0000000000000000e+00 -4.6622082897470302e-02 -1.5368964204535060e-01  0.0000000000000000e+00 -3.1336445554547593e-02 -1.5752098655185987e-01  0.0000000000000000e+00 -1.5747600695115938e-02 -1.5983494134276272e-01  -1.4321063217048062e-02 0.0000000000000000e+00 -5.6695160512425714e-02  -1.2311985134838129e-02 0.0000000000000000e+00 -6.9495819892484850e-02  -2.3900793777663524e-02 0.0000000000000000e+00 -6.6897279810508428e-02  -3.9458910475844378e-02 0.0000000000000000e+00 -1.4754921989231387e-02  -2.8794546186536381e-02 0.0000000000000000e+00 -3.1424691637893479e-02  -4.6716720924464633e-02 0.0000000000000000e+00 -3.0028971186897305e-02  -2.9166326755207073e-02 0.0000000000000000e+00 -5.1190241510142537e-02  -1.3204770134697213e-02 0.0000000000000000e+00 -1.0114555568583719e-01  -1.4272860722662681e-02 0.0000000000000000e+00 -8.3146170851266590e-02  -3.0642371366130430e-02 0.0000000000000000e+00 -1.2502140741728526e-01  -3.4613287074784449e-02 0.0000000000000000e+00 -1.4400961468811541e-01  -4.6598987549792567e-02 0.0000000000000000e+00 -1.3540169866762439e-01  -1.2752234784436584e-01 0.0000000000000000e+00 -1.2997676998846922e-02  -2.0765761941974700e-02 0.0000000000000000e+00 -1.4150306061060200e-01  -1.3331157834130634e-02 0.0000000000000000e+00 -1.3112536792623214e-01  -1.4427077687336426e-02 0.0000000000000000e+00 -1.1775695756491801e-01  -1.4220323502463950e-01 0.0000000000000000e+00 -4.3215615358467352e-02  -1.3694655213520432e-01 0.0000000000000000e+00 -2.8718192692375091e-02  -1.2757850205052237e-01 0.0000000000000000e+00 -3.9354361129286808e-02  -5.4299107370231955e-02 0.0000000000000000e+00 -6.4423405179250201e-02  -4.6560108521723757e-02 0.0000000000000000e+00 -4.8106350143395218e-02  -3.8778318001893707e-02 0.0000000000000000e+00 -6.4234019563064931e-02  -7.1049623505472434e-02 0.0000000000000000e+00 -3.9296918757168682e-02  -6.1939697808440657e-02 0.0000000000000000e+00 -5.0814225969352936e-02  -7.6468944159802099e-02 0.0000000000000000e+00 -5.1153046641085755e-02  -1.3849314657367167e-02 0.0000000000000000e+00 -4.1732485531366520e-02  -1.2906006756964709e-02 0.0000000000000000e+00 -2.5354550626359974e-02  -6.1724328689654433e-02 0.0000000000000000e+00 -1.2820522869554346e-01  -2.8270336987774550e-02 0.0000000000000000e+00 -1.0958401473578733e-01  -2.5537749009759358e-02 0.0000000000000000e+00 -9.3346404701457178e-02  -3.8266464994689518e-02 0.0000000000000000e+00 -9.5998552217782057e-02  -5.0497146252590504e-02 0.0000000000000000e+00 -9.7722305604650034e-02  -4.5052166539208870e-02 0.0000000000000000e+00 -1.1332164719596506e-01  -6.0729072212981121e-02 0.0000000000000000e+00 -1.0923728685937978e-01  -2.4060053516129776e-02 0.0000000000000000e+00 -1.4677622446167620e-02  -1.2942940781969897e-01 0.0000000000000000e+00 -5.2162640924203182e-02  -3.1665817763466199e-02 0.0000000000000000e+00 -8.0445814069929969e-02  -4.7814509026813140e-02 0.0000000000000000e+00 -8.1431730290748031e-02  -9.3533038522738338e-02 0.0000000000000000e+00 -9.3427968893503494e-02  -8.8933164226829425e-02 0.0000000000000000e+00 -7.6494536695379672e-02  -7.5663069253519719e-02 0.0000000000000000e+00 -8.5533387425022478e-02  -6.2371762653667069e-02 0.0000000000000000e+00 -2.4781887001707487e-02  -7.0792711159557972e-02 0.0000000000000000e+00 -1.3067723696137576e-02  -5.5375484285317370e-02 0.0000000000000000e+00 -1.3190381517864088e-02  -7.5767617260830186e-02 0.0000000000000000e+00 -1.0181456038620657e-01  -9.4083631653688923e-02 0.0000000000000000e+00 -1.1393444030766396e-01  -1.1220097645553768e-01 0.0000000000000000e+00 -8.8503682940266920e-02  -5.7657996955182228e-02 0.0000000000000000e+00 -3.7065689027573727e-02  -9.9767531851639002e-02 0.0000000000000000e+00 -3.0829244350065711e-02  -1.1408058984689111e-01 0.0000000000000000e+00 -4.4520784904502113e-02  -1.1805680812022352e-01 0.0000000000000000e+00 -2.9029135268815887e-02  -1.0704289481464087e-01 0.0000000000000000e+00 -1.6184390738610249e-02  -8.7865906122499060e-02 0.0000000000000000e+00 -1.4652805466173044e-02  -7.9640157486155022e-02 0.0000000000000000e+00 -2.7111338755417280e-02  -1.2253059618495198e-01 0.0000000000000000e+00 -7.6575080769167525e-02  -1.0378600909645470e-01 0.0000000000000000e+00 -7.0751537623890748e-02  -7.2106072139934654e-02 0.0000000000000000e+00 -6.6740499057222860e-02  -6.0771173216092308e-02 0.0000000000000000e+00 -7.6873777145256311e-02  -6.1094577158274516e-02 0.0000000000000000e+00 -9.2031936230175776e-02  -1.1932529415189005e-02 0.0000000000000000e+00 -1.1265275407364880e-02  -1.0649382154511880e-01 0.0000000000000000e+00 -1.0236458635570836e-01  -9.9695877025117285e-02 0.0000000000000000e+00 -8.2102168059213429e-02  -8.5738480037267875e-02 0.0000000000000000e+00 -4.3515293331657948e-02  -1.0069579434266931e-01 0.0000000000000000e+00 -5.1365313856203437e-02  -1.1442688277872171e-01 0.0000000000000000e+00 -5.9681866990129194e-02  -7.6256708211499616e-02 0.0000000000000000e+00 -1.2211158453042582e-01  -1.3016613672027910e-01 0.0000000000000000e+00 -6.5218398409179756e-02  -8.7611984752745370e-02 0.0000000000000000e+00 -6.0633343995661136e-02  -1.3301514390726150e-02 0.0000000000000000e+00 -1.5156333229214211e-01  -1.4814760414261857e-01 0.0000000000000000e+00 -1.4706209820275361e-02  -3.7118485693175683e-02 0.0000000000000000e+00 -3.8957557237941004e-02  -1.3078718136242626e-02 -6.8350505385201543e-02 -1.4474519882607870e-01  -1.4755194473127536e-02 -8.1961553703370049e-02 -1.3732630824112335e-01  -1.5512221768823128e-01 -1.2075050853900093e-02 -3.9825688363648977e-02  -4.1577682818861934e-02 -6.7023148788833350e-02 -1.3989876569989121e-01  -5.6195444075399385e-02 -7.4527000222920567e-02 -1.3069028259610588e-01  -4.0492796543559230e-02 -8.3486450589218900e-02 -1.3108419806873484e-01  -5.4310053471797647e-02 -5.5736431924559363e-02 -1.4048657200002904e-01  -6.6284478664036264e-02 -1.1106006985185732e-01 -9.5206134001417156e-02  -8.1113367123591740e-02 -9.6404431007871577e-02 -9.9596111060454823e-02  -8.1155933637890323e-02 -1.0839533658679204e-01 -8.6353129575582416e-02  -9.1731048052959466e-02 -9.7665491222727205e-02 -8.8543726233268186e-02  -3.6387716516569274e-02 -5.1243828537687081e-02 -1.4779440672885974e-01  -2.6629835209349331e-02 -7.6502522321888394e-02 -1.3867818935436382e-01  -2.6607748167410777e-02 -6.2566853859679902e-02 -1.4550256269770234e-01  -8.0517760701591862e-02 -3.6580274126364755e-02 -1.3406222059515707e-01  -7.0907234652670112e-02 -4.9291660866661396e-02 -1.3540950267411730e-01  -6.5193040975065272e-02 -3.9598928641907262e-02 -1.4133487412668891e-01  -9.9523318003313821e-02 -1.1966717033891749e-01 -3.9609939613353087e-02  -1.0080950770168934e-01 -1.1469174540125489e-01 -4.9772160879648843e-02  -1.0778209068373787e-01 -1.1164457020836484e-01 -4.1382419447930724e-02  -8.2803504598966890e-02 -4.9697046764015082e-02 -1.2832526451507775e-01  -1.4454237484286575e-01 -6.8898253162256562e-02 -1.2428876865750739e-02  -1.5068423904926107e-01 -5.3996665554394870e-02 -1.3144689069103257e-02  -3.7955442464393897e-02 -1.5574321449443054e-01 -9.8705366053313866e-03  -4.8073391880337837e-02 -1.5227535882372123e-01 -1.7167680442164400e-02  -4.9810574052050471e-02 -3.8789499873363949e-02 -1.4767470245323988e-01  -7.1999150305905701e-02 -2.8454373540668876e-02 -1.4071658573759083e-01  -8.4578885014271687e-02 -1.6987563057320663e-02 -1.3547013012601317e-01  -6.7465064104631794e-02 -1.4487753533066857e-02 -1.4502988153635718e-01  -1.2244177920692846e-01 -9.3850381414976050e-02 -4.4650900484220095e-02  -1.2525738445894238e-01 -9.5870493876373197e-02 -3.0227309246966989e-02  -1.1667689870547655e-01 -1.0446316954888990e-01 -3.5607947461369152e-02  -1.3135370820957651e-01 -8.5072094502331025e-02 -3.6092977101392344e-02  -1.3338153788569113e-02 -3.0873520372941058e-02 -1.5704546114490495e-01  -1.5111006979895376e-02 -1.2253415324514521e-02 -1.5942580081508090e-01  -2.8271942191332090e-02 -1.9226568022224878e-02 -1.5692583053909037e-01  -8.9551430654364925e-02 -5.8427223233524825e-02 -1.1983390562876545e-01  -7.1559905685703265e-02 -6.2830232931244956e-02 -1.2932253479303282e-01  -1.2944864097822986e-01 -7.9102287916845121e-02 -5.2717728892994205e-02  -1.1798616108842541e-01 -9.0331594197258933e-02 -6.0930981070402734e-02  -1.0318843408936484e-01 -4.6643316636939304e-02 -1.1388766583765673e-01  -1.1290717876763708e-01 -4.9192054075248973e-02 -1.0308188084154894e-01  -1.0182422237131028e-01 -6.0545986572983289e-02 -1.0844171434588994e-01  -5.8643290504097410e-02 -2.6586421618807261e-02 -1.4713409689128581e-01  -9.5763173424131209e-02 -8.7065210669516918e-02 -9.5091282191764853e-02  -8.8103460008436121e-02 -8.1682021762123455e-02 -1.0658098460788445e-01  -9.5085803356027093e-02 -1.0382645768595540e-01 -7.7280065144431642e-02  -3.0171360563621300e-02 -3.5970265652045308e-02 -1.5358918276375186e-01  -1.6451385208129887e-02 -4.9674730552054805e-02 -1.5184031408819645e-01  -3.7492593431007637e-02 -1.0422670552981569e-02 -1.5582413770556480e-01  -7.8489494586591560e-02 -1.3932369617153434e-01 -1.4912064350334583e-02  -9.2232889673743171e-02 -1.3079436146200790e-01 -1.3427504473646193e-02  -1.4963757817275308e-01 -1.3478497530946992e-02 -5.6755781112174629e-02  -1.5276302756529525e-01 -2.5552167723533709e-02 -4.2478388870667294e-02  -8.7607214481356610e-02 -1.1427778059232331e-01 -7.1126039546574926e-02  -1.4576866899256369e-01 -6.2121498262801222e-02 -2.6197590742383578e-02  -1.4302354173632090e-01 -2.0548069038322812e-02 -7.0120846354535540e-02  -1.4609909983135580e-01 -3.1392668795616842e-02 -5.8852177599120342e-02  -7.8846836461566705e-02 -7.4495968206513621e-02 -1.1843413381119067e-01  -7.7415366050332307e-02 -8.6709937391193592e-02 -1.1082014529460461e-01  -6.7158838456391576e-02 -8.3087572865272560e-02 -1.1991174535200337e-01  -1.1798843495492219e-01 -1.5280192221532322e-02 -1.0788659579439211e-01  -1.2974078080029447e-01 -1.5601145580514690e-02 -9.3374015814018302e-02  -4.1779775904077582e-02 -2.3708717896538962e-02 -1.5325411993486815e-01  -5.2427389893203710e-02 -1.2288783001498205e-02 -1.5131291092504157e-01  -7.3720563692514660e-02 -1.1922912438130431e-01 -7.8374588279614507e-02  -9.8386904436164532e-02 -1.1026561044326019e-01 -6.2888841509831761e-02  -1.0735660391397969e-01 -9.7840003712349050e-02 -6.8522014573403608e-02  -1.1206517473690319e-01 -8.7085202548814064e-02 -7.5174362613562667e-02  -1.2124739977418000e-01 -7.7795215077963206e-02 -7.0994781490720749e-02  -1.2385823390840749e-02 -1.1055650904344183e-01 -1.1583582937499330e-01  -1.6496337453957264e-02 -1.2075348007597730e-01 -1.0459516722157272e-01  -1.5458978972706502e-01 -3.3598624457153760e-02 -2.7697902160653830e-02  -1.5781112200022929e-01 -2.6359585642976177e-02 -1.3976404772191607e-02  -1.5495871288731786e-01 -4.0026366308103641e-02 -1.3417405542684183e-02  -1.5697810525129763e-01 -1.8180288674405166e-02 -2.8666513194656851e-02  -1.2266083135282310e-01 -5.0197447685419734e-02 -9.0709869604551477e-02  -1.1228883940883881e-01 -6.2920336178543992e-02 -9.6050718221132453e-02  -1.4955171509519774e-01 -4.0892585958319093e-02 -4.1903747293378021e-02  -1.1226847954242405e-02 -1.2990244472656173e-01 -9.3773473011577443e-02  -2.7866772093554724e-02 -1.2950802346469636e-01 -9.0798793649051898e-02  -5.4512390248298320e-02 -9.0258250496883949e-02 -1.2113694754320711e-01  -1.0982016543725201e-01 -7.7815919188395491e-02 -8.7622587832292209e-02  -9.9896340767024028e-02 -7.3793013315547662e-02 -1.0182734135846581e-01  -1.8249887071455199e-02 -1.3817115680906880e-01 -7.9805931085810133e-02  -3.5802247201742264e-02 -1.3656483271309905e-01 -7.6559194632695601e-02  -2.7052971326848918e-02 -1.4430787207463772e-01 -6.5087340384384434e-02  -1.0244203317383428e-01 -9.2250930212229729e-02 -8.2395197589036281e-02  -9.1665905594179503e-02 -7.0543209226484688e-02 -1.1142066190702998e-01  -1.5087497496175575e-01 -4.7788568786116245e-02 -2.7329821760343664e-02  -1.9271759340560562e-02 -1.5116542166910388e-01 -5.0700188582602279e-02  -3.5888837096185948e-02 -1.4838106388535652e-01 -4.9878925052117815e-02  -2.8812140021713128e-02 -1.5375282119359063e-01 -3.6369398720001452e-02  -4.7368062031882936e-02 -1.4951859085941852e-01 -3.4540678725032400e-02  -4.2476543269257296e-02 -1.2784985430487017e-01 -8.7427245437864634e-02  -3.4985368978268552e-02 -1.2024820673099193e-01 -1.0054647316515680e-01  -1.3880181485525780e-01 -7.6405614273562378e-02 -2.6265978798869397e-02  -1.3864058739540233e-01 -7.1118493096853641e-02 -3.8920554063881806e-02  -1.3596664634087946e-01 -2.4332306604739312e-02 -8.1952806265868566e-02  -1.3875885449660100e-01 -3.4302869400180187e-02 -7.3238614778167552e-02  -1.2985267779924561e-01 -3.4600589584695578e-02 -8.7951568226053448e-02  -1.3263705732710218e-01 -5.0174043411886485e-02 -7.5393735478941723e-02  -1.3116264682824391e-01 -9.0159159119121576e-02 -2.1496127382540180e-02  -1.3706502751234179e-01 -8.2852095171639717e-02 -1.1955191596597095e-02  -1.3014272480539771e-01 -9.3595482309941566e-02 -9.8781874971787861e-03  -6.6969614240462133e-02 -9.6139407842713354e-02 -1.0983827746528133e-01  -1.4535277632525587e-01 -5.5555806822941783e-02 -3.9750970200101383e-02  -1.2243395074859866e-01 -1.0210939631983457e-01 -1.9446600704906444e-02  -5.7640825753509900e-02 -1.4951832791630412e-01 -1.0755354354528970e-02  -1.3747754615432306e-01 -6.5821845620616562e-02 -5.0612595048295086e-02  -4.1714582871458974e-02 -9.7474749655320103e-02 -1.2062902485243722e-01  -2.6541727433447574e-02 -9.1277417944159958e-02 -1.2945148396631342e-01  -3.0831860741537230e-02 -1.0241073553210502e-01 -1.1981291242462827e-01  -4.1723412268051374e-02 -1.1079468527609282e-01 -1.0851996460721160e-01  -2.6173241878726813e-02 -1.1152823877176678e-01 -1.1256062600904430e-01  -1.1405353350777549e-01 -3.3132448490680678e-02 -1.0810984802095340e-01  -1.0883128674955268e-01 -2.1999061472563197e-02 -1.1604434212380609e-01  -1.4330923598893958e-01 -4.9339966481311497e-02 -5.3128643986749879e-02  -9.8631631533332334e-02 -1.5698837107536372e-02 -1.2577801894695748e-01  -1.0210255445216351e-01 -3.1822000886489253e-02 -1.1981898758071931e-01  -1.0716543447087881e-01 -9.8953328884363902e-03 -1.1921779036842221e-01  -1.4010803731225810e-01 -4.3760951606995870e-02 -6.5185709029607561e-02  -1.3744950346593349e-01 -5.6234989714989976e-02 -6.1155335337354955e-02  -8.4218617070583424e-02 -1.3417946176650039e-01 -2.6401058072706991e-02  -9.0366674231088309e-02 -1.2732044158353525e-01 -3.7645364289959411e-02  -9.6292116719337031e-02 -1.2593038533569070e-01 -2.5757271868475082e-02  -7.9646076838667687e-02 -1.3265801789568668e-01 -4.3032463451523520e-02  -7.8611389893277192e-02 -1.234878