<?xml version="1.0"?>
<VTKFile type="UnstructuredGrid"  version="0.1"  >
<UnstructuredGrid>
<Piece  NumberOfPoints="597" NumberOfCells="2124">
<Points>
<DataArray  type="Float64"  NumberOfComponents="3"  format="ascii">0 0 0  1 0 0  0 1 0  0 0 1  0.09999999999981467 0 0  0.1999999999995579 0 0  0.2999999999992664 0 0  0.3999999999989749 0 0  0.4999999999986943 0 0  0.5999999999989468 0 0  0.69999999999921 0 0  0.7999999999994734 0 0  0.8999999999997368 0 0  0 0.09999999999981467 0  0 0.1999999999995579 0  0 0.2999999999992664 0  0 0.3999999999989749 0  0 0.4999999999986943 0  0 0.5999999999989468 0  0 0.69999999999921 0  0 0.7999999999994734 0  0 0.8999999999997368 0  0 0 0.09999999999981467  0 0 0.1999999999995579  0 0 0.2999999999992664  0 0 0.3999999999989749  0 0 0.4999999999986943  0 0 0.5999999999989468  0 0 0.69999999999921  0 0 0.7999999999994734  0 0 0.8999999999997368  0.9951847266502585 0.09801714055230534 0  0.9807852803038259 0.1950903225158687 0  0.9569403355024331 0.2902846780119318 0  0.9238795320817892 0.3826834334019886 0  0.8819212636904032 0.4713967380569389 0  0.8314696113679687 0.5555702344182949 0  0.7730104520841969 0.6343932857215511 0  0.7071067795733449 0.7071067827997501 0  0.634393282646958 0.7730104546074502 0  0.5555702316245595 0.8314696132346829 0  0.471396735522105 0.8819212650453002 0  0.3826834312318057 0.9238795329807084 0  0.2902846763682919 0.9569403360010258 0  0.1950903214145686 0.980785280522888 0  0.0980171400302339 0.995184726701678 0  0.9951847266502585 0 0.09801714055230534  0.9807852803038259 0 0.1950903225158687  0.9569403355024331 0 0.2902846780119318  0.9238795320817892 0 0.3826834334019886  0.8819212636904032 0 0.4713967380569389  0.8314696113679687 0 0.5555702344182949  0.7730104520841969 0 0.6343932857215511  0.7071067795733449 0 0.7071067827997501  0.634393282646958 0 0.7730104546074502  0.5555702316245595 0 0.8314696132346829  0.471396735522105 0 0.8819212650453002  0.3826834312318057 0 0.9238795329807084  0.2902846763682919 0 0.9569403360010258  0.1950903214145686 0 0.980785280522888  0.0980171400302339 0 0.995184726701678  0 0.9951847266502585 0.09801714055230534  0 0.9807852803038259 0.1950903225158687  0 0.9569403355024331 0.2902846780119318  0 0.9238795320817892 0.3826834334019886  0 0.8819212636904032 0.4713967380569389  0 0.8314696113679687 0.5555702344182949  0 0.7730104520841969 0.6343932857215511  0 0.7071067795733449 0.7071067827997501  0 0.634393282646958 0.7730104546074502  0 0.5555702316245595 0.8314696132346829  0 0.471396735522105 0.8819212650453002  0 0.3826834312318057 0.9238795329807084  0 0.2902846763682919 0.9569403360010258  0 0.1950903214145686 0.980785280522888  0 0.0980171400302339 0.995184726701678  0.09240154966779951 0 0.3658235692199516  0.07916357488785433 0 0.4469199030523527  0.1536813483092524 0 0.4301465381022301  0.2555379022644893 0 0.09556049568595243  0.1864593291765566 0 0.2034979771761179  0.301651764011142 0 0.1939053326038485  0.1881720785854029 0 0.3302588474155368  0.08403438330774521 0 0.6437268466185475  0.09138388892861184 0 0.5324072873297468  0.1930859140709486 0 0.7878139522981464  0.2165176696171426 0 0.900824597607195  0.292033522918994 0 0.8485491372975176  0.8037370491763215 0 0.0819245024222376  0.13014171782822 0 0.8868491929551598  0.08390174260734276 0 0.8253161934654943  0.0912526277304111 0 0.7448765232291942  0.8893622411880446 0 0.270275215225845  0.8593018882538136 0 0.1801969264281539  0.8024703672696746 0 0.2475353432181931  0.3476914857890963 0 0.4125368919261175  0.2997235777995208 0 0.3096876237048341  0.2490386282757974 0 0.412527605219857  0.4554126154120848 0 0.2518749964366375  0.39715257119151 0 0.3258159451822259  0.4883877361055989 0 0.3266984434363212  0.08966539318254355 0 0.2701713986717769  0.08377502767602918 0 0.164580120521203  0.3869558528229924 0 0.8037364723405749  0.1791913905804899 0 0.6945879747883159  0.1628348997531483 0 0.5951991143072877  0.2434219731662663 0 0.6106761106298939  0.3204481765543245 0 0.6201302437713152  0.2846206283417919 0 0.7159219267704837  0.3832252637688779 0 0.6893291551637116  0.1561812521325313 0 0.09527745928338882  0.8122499659106144 0 0.3273472587872134  0.2026260329838435 0 0.5147603927306801  0.3051207491780334 0 0.5196560474248884  0.5886190882535927 0 0.5879547877726188  0.5628286668856228 0 0.4841066442899339  0.4793970684942127 0 0.5419440173923771  0.4015076433379883 0 0.1595345792024606  0.4550663848726773 0 0.08400234057127416  0.3574412370957718 0 0.08514557536940835  0.4777735346904641 0 0.6420237002140541  0.5886050303809575 0 0.712791733722679  0.7032448955145116 0 0.5547060123784804  0.3710082806848816 0 0.2384994559961529  0.6343947712920404 0 0.1960314230465952  0.7205780420889929 0 0.2811987241304542  0.745939430962431 0 0.1834190974026157  0.6797060130425652 0 0.1027709852058109  0.5617353506566283 0 0.09368054426051139  0.5099863318045709 0 0.1736146479983669  0.767516113391133 0 0.4796577434100839  0.6547738563668709 0 0.4463662193850245  0.4595209371514753 0 0.4253249285837939  0.3873123962753185 0 0.4899626124422253  0.3876250349852705 0 0.5839247669697213  0.07755778095112512 0 0.07322480571131515  0.6662618639536104 0 0.6404224526940073  0.6281317226641706 0 0.5172795154653362  0.5467991787548994 0 0.2775110285514451  0.6382784164401777 0 0.32558335190295  0.7209625386664502 0 0.3760300013763025  0.4777689774710401 0 0.7650512433185178  0.8150026845526732 0 0.4083495007681245  0.5566757769165783 0 0.3852531587967231  0.08307535298787436 0 0.9466352209487393  0.9264479164039098 0 0.09196696687313166  0.2397696045481275 0 0.2516617606603849  0.08142379610690136 0.4255946222877561 0.9012432429190713  0.09186671735860186 0.5103340042487068 0.8550553843753256  0.9658493887414453 0.07517233868428744 0.2479598309495128  0.2588669386047153 0.4173196613385269 0.8711097567802347  0.349931687668115 0.4640670731596268 0.8137503091088829  0.2521091443082024 0.5198490772623717 0.8162094806026494  0.3381706165708041 0.3470207631890471 0.8747669541105296  0.4127313919422814 0.6915412096022421 0.5928098797483512  0.505094034203222 0.6002477622197614 0.6201472732847281  0.5053541985510116 0.6749299798537994 0.5376677936248502  0.5711974176563547 0.6081084457949028 0.5513053856218164  0.2265606352222516 0.3190644824037021 0.9202543858282597  0.1657801920411619 0.4763492767397394 0.8634861287110075  0.1656568208377873 0.3895779149708851 0.9059728836322062  0.501344556404584 0.2277556352228774 0.8347340932223356  0.4415367071350051 0.3068779784495727 0.8431318061816198  0.4059460944519277 0.2465220798785426 0.8800196773547647  0.6196876017566089 0.7450935593761555 0.2466229186537899  0.627698728320387 0.714123017011242 0.3098751733194038  0.6711018023358704 0.69515091935471 0.2576578549585624  0.5155953815884997 0.3094099022200982 0.7990162169147497  0.899989132227882 0.4289906012996104 0.07737328911389559  0.9382293875188548 0.3361973257557999 0.08183504475860598  0.2363183186651487 0.9697312279355392 0.06144101097726593  0.2993323950146074 0.9481462475789452 0.106858834434898  0.3101615066201264 0.2414838162804179 0.9195028038487859  0.4482922838801319 0.1771577048152243 0.8761559084079369  0.5266326972169642 0.1057746683003005 0.8434866458741044  0.4200451415729211 0.09020206018716082 0.9030092288448531  0.7623891105001969 0.5843698709159578 0.2779832695620105  0.7799115838824263 0.596929282445646 0.1881843592994147  0.7264879983305693 0.6504346235700518 0.2216979673856474  0.8178732076005444 0.5297083005156807 0.2247054353013872  0.08303734348179403 0.1922053315992417 0.9778353184930026  0.09408269694107538 0.07627092328721888 0.9926385003601306  0.1760515877647063 0.1196852712822077 0.9770779264130525  0.5576143975194612 0.3637809431371279 0.7461431558952143  0.4455986119305068 0.3912097319557027 0.8052309126385754  0.8060332204752099 0.4925189261569118 0.3282309474556054  0.7346451337886817 0.5624574787189985 0.379391765901261  0.642508165502269 0.2904084282097414 0.7091164940174894  0.7030254185009037 0.306273768786429 0.6418345888895255  0.6340141384684502 0.3769833468372913 0.6752108029567235  0.365152486570974 0.1655128603952953 0.9161163433728284  0.5962792236506059 0.542109883053058 0.5920877993497508  0.5485896415631504 0.5085733599282969 0.6636283167111371  0.5920678220815722 0.6464708649476155 0.4811768020483384  0.1878625042731283 0.2239323962641036 0.9563273296270713  0.1024217313722561 0.3092935774102874 0.9454349644028699  0.2334505071908325 0.06487815783086033 0.9702018786463037  0.4887206245964966 0.8674866792832123 0.09283863613924619  0.5742874233407752 0.8143734795796027 0.08360497084518105  0.9317006522490203 0.08389294215323394 0.3534060962343804  0.951181716421189 0.1590863374964037 0.2644709427669156  0.5455072387620422 0.7115493400103802 0.4428536882413925  0.9076276342048921 0.3867895805147213 0.1631131448807132  0.8905082493452895 0.127913990281725 0.4366154703376809  0.9096700297655037 0.1954608695184058 0.3664634844476816  0.4909557921631998 0.4638599224188366 0.7374255098075979  0.4820557633059458 0.5398846258057163 0.6900339353119844  0.4181956098394346 0.5173376920524271 0.7466419116905315  0.7346402167242096 0.09513558808181954 0.67175365414096  0.8078263850243458 0.09713596463829366 0.5813614504181416  0.2601336813274003 0.1475738587985683 0.954228706358363  0.3264256065230105 0.07648882390671821 0.9421230191559125  0.4590556119879899 0.7423895417623142 0.4879812633537003  0.6126112913498895 0.686574629053208 0.3915644065170771  0.6684671903139626 0.6091898762120843 0.4266606499250449  0.6977699223891808 0.542245960309553 0.4680667195357594  0.7549550374165268 0.4843931863016896 0.4420476586793638  0.07712060794257616 0.6883652307079324 0.7212528828247291  0.1027005936763692 0.7518617879958691 0.6512729380299598  0.9625479306552708 0.2091983633587219 0.1724457188778192  0.9825939555666527 0.1641265719497667 0.08701486576382911  0.964839163020035 0.2492141217550538 0.08353269432177644  0.97740960683
[...]
<PointData  Vectors="Solid displacement [m]"> 
<DataArray  type="Float64"  Name="Solid displacement [m]"  NumberOfComponents="3" format="ascii">0.0000000000000000e+00 0.0000000000000000e+00 0.0000000000000000e+00  -1.5394526312491832e-01 0.0000000000000000e+00 0.0000000000000000e+00  0.0000000000000000e+00 -1.5394454351300532e-01 0.0000000000000000e+00  0.0000000000000000e+00 0.0000000000000000e+00 -1.5394801053623899e-01  -1.3976296970669108e-02 0.0000000000000000e+00 0.0000000000000000e+00  -2.8074725040950908e-02 0.0000000000000000e+00 0.0000000000000000e+00  -4.2380143865902317e-02 0.0000000000000000e+00 0.0000000000000000e+00  -5.6990773261066753e-02 0.0000000000000000e+00 0.0000000000000000e+00  -7.1992644286944171e-02 0.0000000000000000e+00 0.0000000000000000e+00  -8.7434312318207669e-02 0.0000000000000000e+00 0.0000000000000000e+00  -1.0335398182691066e-01 0.0000000000000000e+00 0.0000000000000000e+00  -1.1975920333744870e-01 0.0000000000000000e+00 0.0000000000000000e+00  -1.3663541004779101e-01 0.0000000000000000e+00 0.0000000000000000e+00  0.0000000000000000e+00 -1.3977624568648471e-02 0.0000000000000000e+00  0.0000000000000000e+00 -2.8067235635313142e-02 0.0000000000000000e+00  0.0000000000000000e+00 -4.2371751735579034e-02 0.0000000000000000e+00  0.0000000000000000e+00 -5.6988918327690929e-02 0.0000000000000000e+00  0.0000000000000000e+00 -7.1990346228587243e-02 0.0000000000000000e+00  0.0000000000000000e+00 -8.7433065456064565e-02 0.0000000000000000e+00  0.0000000000000000e+00 -1.0335230895850306e-01 0.0000000000000000e+00  0.0000000000000000e+00 -1.1976043822263721e-01 0.0000000000000000e+00  0.0000000000000000e+00 -1.3663974226671460e-01 0.0000000000000000e+00  0.0000000000000000e+00 0.0000000000000000e+00 -1.3976864747166740e-02  0.0000000000000000e+00 0.0000000000000000e+00 -2.8072475405561088e-02  0.0000000000000000e+00 0.0000000000000000e+00 -4.2375350900089648e-02  0.0000000000000000e+00 0.0000000000000000e+00 -5.6987435930569430e-02  0.0000000000000000e+00 0.0000000000000000e+00 -7.1990496349368507e-02  0.0000000000000000e+00 0.0000000000000000e+00 -8.7432557219244436e-02  0.0000000000000000e+00 0.0000000000000000e+00 -1.0334972820122861e-01  0.0000000000000000e+00 0.0000000000000000e+00 -1.1975760382261362e-01  0.0000000000000000e+00 0.0000000000000000e+00 -1.3663926736768736e-01  -1.5320473270850210e-01 -1.5091959914096587e-02 0.0000000000000000e+00  -1.5098754544387818e-01 -3.0034959269354594e-02 0.0000000000000000e+00  -1.4731506019479834e-01 -4.4690090717225364e-02 0.0000000000000000e+00  -1.4222393411020612e-01 -5.8912572953665289e-02 0.0000000000000000e+00  -1.3576552155371224e-01 -7.2567145284996248e-02 0.0000000000000000e+00  -1.2800222915388762e-01 -8.5524852182901678e-02 0.0000000000000000e+00  -1.1899701903317358e-01 -9.7667015183636172e-02 0.0000000000000000e+00  -1.0885333513078965e-01 -1.0886013686548335e-01 0.0000000000000000e+00  -9.7654968397531350e-02 -1.1900619773063506e-01 0.0000000000000000e+00  -8.5519260346443166e-02 -1.2800363867410394e-01 0.0000000000000000e+00  -7.2571621526150362e-02 -1.3576259100114879e-01 0.0000000000000000e+00  -5.8905229784217597e-02 -1.4222506603064430e-01 0.0000000000000000e+00  -4.4688733977152430e-02 -1.4730923855484268e-01 0.0000000000000000e+00  -3.0033264542124304e-02 -1.5098461387501111e-01 0.0000000000000000e+00  -1.5093934703716347e-02 -1.5320492745314254e-01 0.0000000000000000e+00  -1.5320588927393561e-01 0.0000000000000000e+00 -1.5091488430105627e-02  -1.5098952051707559e-01 0.0000000000000000e+00 -3.0027763112444709e-02  -1.4731565461077126e-01 0.0000000000000000e+00 -4.4691743285610708e-02  -1.4223282549752456e-01 0.0000000000000000e+00 -5.8904159504921789e-02  -1.3577077374549351e-01 0.0000000000000000e+00 -7.2575754139526300e-02  -1.2799846867268319e-01 0.0000000000000000e+00 -8.5538648390812280e-02  -1.1899880742066089e-01 0.0000000000000000e+00 -9.7662598549019722e-02  -1.0886219430451040e-01 0.0000000000000000e+00 -1.0885111959138519e-01  -9.7654561819355584e-02 0.0000000000000000e+00 -1.1901164105227531e-01  -8.5521916918606597e-02 0.0000000000000000e+00 -1.2800064659651555e-01  -7.2573908698371367e-02 0.0000000000000000e+00 -1.3576334098337647e-01  -5.8918933177126681e-02 0.0000000000000000e+00 -1.4222831832226715e-01  -4.4689178625130881e-02 0.0000000000000000e+00 -1.4732171174477054e-01  -3.0020656280348848e-02 0.0000000000000000e+00 -1.5099165965699207e-01  -1.5091706133065801e-02 0.0000000000000000e+00 -1.5320925363690721e-01  0.0000000000000000e+00 -1.5320166611664851e-01 -1.5104694577117333e-02  0.0000000000000000e+00 -1.5098090108295245e-01 -3.0035967899120160e-02  0.0000000000000000e+00 -1.4730417093475603e-01 -4.4698971911805108e-02  0.0000000000000000e+00 -1.4222186929543820e-01 -5.8907383590226382e-02  0.0000000000000000e+00 -1.3576091019090952e-01 -7.2567388560031643e-02  0.0000000000000000e+00 -1.2800463890678335e-01 -8.5512624246071395e-02  0.0000000000000000e+00 -1.1899634860823595e-01 -9.7662570077342969e-02  0.0000000000000000e+00 -1.0885867431773591e-01 -1.0884604345474980e-01  0.0000000000000000e+00 -9.7661139313504772e-02 -1.1899517374305635e-01  0.0000000000000000e+00 -8.5521388970701398e-02 -1.2799925182351587e-01  0.0000000000000000e+00 -7.2568221673921102e-02 -1.3576338029552878e-01  0.0000000000000000e+00 -5.8905844725501103e-02 -1.4222559170503135e-01  0.0000000000000000e+00 -4.4688645246348802e-02 -1.4731312783758527e-01  0.0000000000000000e+00 -3.0040719879262323e-02 -1.5098742491175465e-01  0.0000000000000000e+00 -1.5100522928301741e-02 -1.5320686858513236e-01  -1.3138184086739313e-02 0.0000000000000000e+00 -5.2008880601215494e-02  -1.1344796259473192e-02 0.0000000000000000e+00 -6.4022572890437529e-02  -2.2022455360929307e-02 0.0000000000000000e+00 -6.1639987776203567e-02  -3.6029474867483792e-02 0.0000000000000000e+00 -1.3471304501386037e-02  -2.6294793584657312e-02 0.0000000000000000e+00 -2.8695286801114366e-02  -4.2816657196603713e-02 0.0000000000000000e+00 -2.7520765640928199e-02  -2.6759608341854677e-02 0.0000000000000000e+00 -4.6967015599163241e-02  -1.2325264709652081e-02 0.0000000000000000e+00 -9.4400823286144311e-02  -1.3221874364750212e-02 0.0000000000000000e+00 -7.7013957802748098e-02  -2.8951507151861247e-02 0.0000000000000000e+00 -1.1811894599643996e-01  -3.2994056334600314e-02 0.0000000000000000e+00 -1.3727343368007086e-01  -4.4319997294246134e-02 0.0000000000000000e+00 -1.2878090690231553e-01  -1.2045199369430988e-01 0.0000000000000000e+00 -1.2276335541189830e-02  -1.9749509127181888e-02 0.0000000000000000e+00 -1.3457232160279564e-01  -1.2614091748072665e-02 0.0000000000000000e+00 -1.2406156980412908e-01  -1.3568259336861718e-02 0.0000000000000000e+00 -1.1073734338638648e-01  -1.3558144593538227e-01 0.0000000000000000e+00 -4.1203684483730726e-02  -1.3005431202332718e-01 0.0000000000000000e+00 -2.7273200762404821e-02  -1.2080112988547413e-01 0.0000000000000000e+00 -3.7264484496135654e-02  -5.0294472470848395e-02 0.0000000000000000e+00 -5.9669043750725050e-02  -4.2838814832071102e-02 0.0000000000000000e+00 -4.4259581689630387e-02  -3.5785913575317040e-02 0.0000000000000000e+00 -5.9275503747820611e-02  -6.5725630938133425e-02 0.0000000000000000e+00 -3.6354040025195024e-02  -5.7274303094128592e-02 0.0000000000000000e+00 -4.6986999178390505e-02  -7.1058544044090968e-02 0.0000000000000000e+00 -4.7534364758657389e-02  -1.2649880904850041e-02 0.0000000000000000e+00 -3.8121695294864845e-02  -1.1749204281914739e-02 0.0000000000000000e+00 -2.3082006195208903e-02  -5.8681362848793606e-02 0.0000000000000000e+00 -1.2188383985358443e-01  -2.6518363267226383e-02 0.0000000000000000e+00 -1.0279454482416787e-01  -2.3779641972270810e-02 0.0000000000000000e+00 -8.6920077826612430e-02  -3.5736509397042190e-02 0.0000000000000000e+00 -8.9650441879734824e-02  -4.7299849173917920e-02 0.0000000000000000e+00 -9.1535373059152672e-02  -4.2432010222728113e-02 0.0000000000000000e+00 -1.0673040669103367e-01  -5.7276647522137382e-02 0.0000000000000000e+00 -1.0302771480521601e-01  -2.1902862365928914e-02 0.0000000000000000e+00 -1.3361543910541054e-02  -1.2289425494850421e-01 0.0000000000000000e+00 -4.9529909066986906e-02  -2.9355578170653509e-02 0.0000000000000000e+00 -7.4577329305465095e-02  -4.4478431397874031e-02 0.0000000000000000e+00 -7.5747928255170432e-02  -8.8510312219120590e-02 0.0000000000000000e+00 -8.8411478272050301e-02  -8.3581035405862814e-02 0.0000000000000000e+00 -7.1891377761704858e-02  -7.1009161855305453e-02 0.0000000000000000e+00 -8.0270759940890543e-02  -5.7386876044618090e-02 0.0000000000000000e+00 -2.2800310352176209e-02  -6.5252359390832834e-02 0.0000000000000000e+00 -1.2044875245476989e-02  -5.0774287994175077e-02 0.0000000000000000e+00 -1.2093787018997874e-02  -7.1524367344200757e-02 0.0000000000000000e+00 -9.6111910222555746e-02  -8.9667624850091748e-02 0.0000000000000000e+00 -1.0858739312501003e-01  -1.0669775530716775e-01 0.0000000000000000e+00 -8.4164761576736830e-02  -5.3077945425693572e-02 0.0000000000000000e+00 -3.4122259188460707e-02  -9.3216981075919969e-02 0.0000000000000000e+00 -2.8805685209921637e-02  -1.0747055608160051e-01 0.0000000000000000e+00 -4.1943379221923462e-02  -1.1117148674952523e-01 0.0000000000000000e+00 -2.7336257396614782e-02  -1.0018777444771168e-01 0.0000000000000000e+00 -1.5147466657909609e-02  -8.1547829022867085e-02 0.0000000000000000e+00 -1.3598519577184859e-02  -7.3761276143174376e-02 0.0000000000000000e+00 -2.5109411323838347e-02  -1.1660711224523441e-01 0.0000000000000000e+00 -7.2873027222460571e-02  -9.7914769791023676e-02 0.0000000000000000e+00 -6.6748544596656897e-02  -6.7186490742895816e-02 0.0000000000000000e+00 -6.2187382780600792e-02  -5.6619999235688959e-02 0.0000000000000000e+00 -7.1618424625286961e-02  -5.7239567395645556e-02 0.0000000000000000e+00 -8.6222642435361235e-02  -1.0844687159380671e-02 0.0000000000000000e+00 -1.0237535378634833e-02  -1.0149231986855919e-01 0.0000000000000000e+00 -9.7558056949294841e-02  -9.4209043099246784e-02 0.0000000000000000e+00 -7.7584277394146375e-02  -7.9815931633706400e-02 0.0000000000000000e+00 -4.0510982088389387e-02  -9.4452021493685437e-02 0.0000000000000000e+00 -4.8181218545090679e-02  -1.0812596956333051e-01 0.0000000000000000e+00 -5.6396207209014504e-02  -7.2550688336591965e-02 0.0000000000000000e+00 -1.1617907412205203e-01  -1.2393602003411286e-01 0.0000000000000000e+00 -6.2096737319466362e-02  -8.1936915147288458e-02 0.0000000000000000e+00 -5.6706474882762009e-02  -1.2703075815684806e-02 0.0000000000000000e+00 -1.4473750499491364e-01  -1.4126574423067745e-01 0.0000000000000000e+00 -1.4022879255040080e-02  -3.4002756901010352e-02 0.0000000000000000e+00 -3.5685153942133237e-02  -1.2537961564656294e-02 -6.5512094621928099e-02 -1.3874073551556068e-01  -1.4144060952606322e-02 -7.8560095491269744e-02 -1.3162864525125509e-01  -1.4868827338890908e-01 -1.1576328328369334e-02 -3.8175683252171702e-02  -3.9855269913208376e-02 -6.4241661266407429e-02 -1.3408755635633521e-01  -5.3857751484240941e-02 -7.1429588436590877e-02 -1.2526541927514701e-01  -3.8815912674480327e-02 -8.0017987815905620e-02 -1.2564181920611356e-01  -5.2054550534892517e-02 -5.3427387502154394e-02 -1.3465144018628941e-01  -6.3531719635681716e-02 -1.0644643969625535e-01 -9.1253563039480512e-02  -7.7739617060071653e-02 -9.2406322285671166e-02 -9.5460760867337263e-02  -7.7781326526077915e-02 -1.0389582658770277e-01 -8.2771405662928496e-02  -8.7918066656230934e-02 -9.3613454834570287e-02 -8.4871481667108131e-02  -3.4879015477621948e-02 -4.9118134436635555e-02 -1.4165872860698997e-01  -2.5530307821768999e-02 -7.3326510760890196e-02 -1.3292200389146111e-01  -2.5506544797532706e-02 -5.9969312740806489e-02 -1.3946408930989490e-01  -7.7176167393830306e-02 -3.5064276599762627e-02 -1.2849947335033959e-01  -6.7958596908154215e-02 -4.7252723140739049e-02 -1.2978922560555420e-01  -6.2483588018630444e-02 -3.7963000769280185e-02 -1.3546988802470278e-01  -9.5392195282931275e-02 -1.1470364405156218e-01 -3.7967733140646574e-02  -9.6624505821595943e-02 -1.0993304217608253e-01 -4.7712402251310113e-02  -1.0330988078889822e-01 -1.0701211632405028e-01 -3.9666901377977959e-02  -7.9363646102207558e-02 -4.7639857521341214e-02 -1.2300001808045470e-01  -1.3854470972036959e-01 -6.6039788811397479e-02 -1.1915867035173291e-02  -1.4443205246122343e-01 -5.1758187535433875e-02 -1.2601102053603052e-02  -3.6382388256025307e-02 -1.4928076383187469e-01 -9.4641889941419546e-03  -4.6077787110660691e-02 -1.4595544970970761e-01 -1.6461798328869348e-02  -4.7740526592213887e-02 -3.7186859072255649e-02 -1.4154512627000501e-01  -6.9013118528913564e-02 -2.7275975344779897e-02 -1.3487981525028406e-01  -8.1068479617847911e-02 -1.6282286065327778e-02 -1.2985150417656871e-01  -6.4670053590619392e-02 -1.3887597172552821e-02 -1.3901474557016383e-01  -1.1735958018734750e-01 -8.9953707720161452e-02 -4.2804467206575603e-02  -1.2005997476887338e-01 -9.1893446897197570e-02 -2.8977679547663296e-02  -1.1183506582836365e-01 -1.0012897694830065e-01 -3.4133005241173721e-02  -1.2590278178754755e-01 -8.1540367152892548e-02 -3.4600206616654583e-02  -1.2786958668616866e-02 -2.9597482036703072e-02 -1.5052964012218834e-01  -1.4485008031820481e-02 -1.1749463716175424e-02 -1.5281447462361605e-01  -2.7095668406407189e-02 -1.8433952169909788e-02 -1.5041723751646230e-01  -8.5830991792317027e-02 -5.6005434301583994e-02 -1.1486136439159947e-01  -6.8584570545873053e-02 -6.0223252541373264e-02 -1.2395497823556198e-01  -1.2407272850490386e-01 -7.5821645969163506e-02 -5.0532937751266764e-02  -1.1308905618654098e-01 -8.6581428561763527e-02 -5.8401498951122996e-02  -9.8905159315575891e-02 -4.4710562308064868e-02 -1.0916228897476610e-01  -1.0821993988932170e-01 -4.7154333126521522e-02 -9.8804893904121241e-02  -9.7597540601858157e-02 -5.8034444768507068e-02 -1.0394171891165885e-01  -5.6207760344281960e-02 -2.5488107209218437e-02 -1.4103066722436772e-01  -9.1787292855577476e-02 -8.3452311640094326e-02 -9.1144727970236955e-02  -8.4444792992391576e-02 -7.8295847901004897e-02 -1.0215764836971571e-01  -9.1136914107617623e-02 -9.9518561042661158e-02 -7.4074421010785790e-02  -2.8919163122667103e-02 -3.4484142407773484e-02 -1.4721449590935243e-01  -1.5771025741418365e-02 -4.7614321345644084e-02 -1.4553881006942873e-01  -3.5936125058417132e-02 -9.9935315880476105e-03 -1.4936426707742317e-01  -7.5231246661702805e-02 -1.3354419905593237e-01 -1.4295326193978445e-02  -8.8405493580398592e-02 -1.2536976324932972e-01 -1.2870546522592712e-02  -1.4343096638876865e-01 -1.2924816963708870e-02 -5.4397520743473565e-02  -1.4642297123207698e-01 -2.4494384861928346e-02 -4.0719381144055405e-02  -8.3967787158895607e-02 -1.0953555722307588e-01 -6.8176699656056397e-02  -1.3971954801643768e-01 -5.9545280765857779e-02 -2.5111552093812245e-02  -1.3709321851317433e-01 -1.9700564342345732e-02 -6.7209430546546406e-02  -1.4003899474531076e-01 -3.0090914746470767e-02 -5.6406142227402041e-02  -7.5571844560364101e-02 -7.1402399725794513e-02 -1.1352007968467794e-01  -7.4197392883021865e-02 -8.3114197252350461e-02 -1.0621896143196212e-01  -6.4366114463904722e-02 -7.9640738864641430e-02 -1.1493343080373780e-01  -1.1309465544810300e-01 -1.4647270193483193e-02 -1.0340977841479713e-01  -1.2435743611232025e-01 -1.4954550375279780e-02 -8.9504900037437413e-02  -4.0047397775264532e-02 -2.2733661973757931e-02 -1.4689557895608743e-01  -5.0254127014025422e-02 -1.1783787573375193e-02 -1.4503837800821590e-01  -7.0654916459077274e-02 -1.1427947961948680e-01 -7.5125459189224517e-02  -9.4303000370652396e-02 -1.0568857881994184e-01 -6.0281404801035485e-02  -1.0289933783960163e-01 -9.3781669395057013e-02 -6.5676896498403609e-02  -1.0741527562994176e-01 -8.3469349795400660e-02 -7.2055881853369225e-02  -1.1621423772605617e-01 -7.4566473291977964e-02 -6.8048806693918176e-02  -1.1871768473472554e-02 -1.0597119864892143e-01 -1.1102858369357606e-01  -1.5814292276533411e-02 -1.1574409335502947e-01 -1.0025257061896954e-01  -1.4817540251986264e-01 -3.2204939362644340e-02 -2.6551255654688577e-02  -1.5126518905438383e-01 -2.5265937753952073e-02 -1.3398084693280502e-02  -1.4853008653341951e-01 -3.8367132180905490e-02 -1.2862571494804451e-02  -1.5046629155639038e-01 -1.7427672551639350e-02 -2.7477288472049315e-02  -1.1757000089552716e-01 -4.8119441068532387e-02 -8.6944059924832853e-02  -1.0762831590081605e-01 -6.0312531842972458e-02 -9.2062485085440668e-02  -1.4334599580930366e-01 -3.9195149364716908e-02 -4.0166446309463352e-02  -1.0764909755211039e-02 -1.2451466866545360e-01 -8.9880623488605038e-02  -2.6709647617694812e-02 -1.2413333172842100e-01 -8.7029431563871204e-02  -5.2248610687803246e-02 -8.6510559387086280e-02 -1.1610604689658142e-01  -1.0526330391373984e-01 -7.4584871091808336e-02 -8.3986419540154775e-02  -9.5751272380876801e-02 -7.0732383814597108e-02 -9.7599132230788407e-02  -1.7491920983723739e-02 -1.3243746076732388e-01 -7.6491703906094416e-02  -3.4315648927132847e-02 -1.3089651123796836e-01 -7.3380282594069257e-02  -2.5930356980042469e-02 -1.3831718944262877e-01 -6.2385410488614561e-02  -9.8189281665374259e-02 -8.8422516457808714e-02 -7.8977590221830915e-02  -8.7858805166438819e-02 -6.7615598858947759e-02 -1.0679901103340809e-01  -1.4461431176850104e-01 -4.5806554669718384e-02 -2.6197201581683992e-02  -1.8471914337829298e-02 -1.4488905601895138e-01 -4.8597687756208270e-02  -3.4400454605268437e-02 -1.4222042041898564e-01 -4.7808779214190467e-02  -2.7618148585425436e-02 -1.4736827221564081e-01 -3.4863068166547259e-02  -4.5399932862070808e-02 -1.4330960989841163e-01 -3.3112083934615760e-02  -4.0716063058376745e-02 -1.2254342212208866e-01 -8.3797644637652005e-02  -3.3533405223103316e-02 -1.1525729757331904e-01 -9.6372544088855483e-02  -1.3304172639259537e-01 -7.3234640604269041e-02 -2.5177377985601629e-02  -1.3288648379725743e-01 -6.8169242638143987e-02 -3.7307450349203616e-02  -1.3032754440154640e-01 -2.3326870519190898e-02 -7.8556233853231364e-02  -1.3300200504241552e-01 -3.2884105397974102e-02 -7.0201771002642840e-02  -1.2446440712953336e-01 -3.3171108430226581e-02 -8.4303389654054317e-02  -1.2713110590739293e-01 -4.8095819615940019e-02 -7.2269875473981976e-02  -1.2572256242494576e-01 -8.6417334746561658e-02 -2.0607843893582330e-02  -1.3138007268962743e-01 -7.9412549561533263e-02 -1.1461329566334907e-02  -1.2474413460928498e-01 -8.9715566447667303e-02 -9.4696521478284997e-03  -6.4185713494268437e-02 -9.2151298483328981e-02 -1.0527407709133337e-01  -1.3932152175897577e-01 -5.3252060043657630e-02 -3.8101867567895374e-02  -1.1735381278641287e-01 -9.7876098153822741e-02 -1.8641380050256985e-02  -5.5245442920326709e-02 -1.4331563454209517e-01 -1.0311661348631021e-02  -1.3177235545763039e-01 -6.3093952994800459e-02 -4.8514248642032860e-02  -3.9987455003452063e-02 -9.3426850517926860e-02 -1.1562010799222885e-01  -2.5445305826157200e-02 -8.7487409583411668e-02 -1.2408026723252141e-01  -2.9557187572205136e-02 -9.8161230784106546e-02 -1.1483961191157459e-01  -3.9994259649665562e-02 -1.0619370644121133e-01 -1.0401503422695318e-01  -2.5090595955983761e-02 -1.0690123175656022e-01 -1.0788674372739998e-01  -1.0931857651821315e-01 -3.1760993993614581e-02 -1.0362465652381257e-01  -1.0431698638671455e-01 -2.1089897454591042e-02 -1.1123016981170819e-01  -1.3736560958828872e-01 -4.7293286116931628e-02 -5.0924137932447558e-02  -9.4536815251836256e-02 -1.5047909177160663e-02 -1.2056473316071639e-01  -9.7866167683842140e-02 -3.0506082101877760e-02 -1.1484721805364971e-01  -1.0272197084838293e-01 -9.4867888044315053e-03 -1.1427442181578606e-01  -1.3429624736143680e-01 -4.1945995447221857e-02 -6.2481631815142144e-02  -1.3174654635132571e-01 -5.3906053052946733e-02 -5.8620838099221993e-02  -8.0722010871054975e-02 -1.2861298634808713e-01 -2.5308204394433240e-02  -8.6613893276562465e-02 -1.2203856845402901e-01 -3.6086566262165796e-02  -9.2296818519739629e-02 -1.2070550519627815e-01 -2.4690712625031044e-02  -7.6337848727501531e-02 -1.2715304160234536e-01 -4.1249520739291945e-02  -7.5345990082470227e-02 -1.183618