<?xml version="1.0"?>
<VTKFile type="UnstructuredGrid"  version="0.1"  >
<UnstructuredGrid>
<Piece  NumberOfPoints="597" NumberOfCells="2124">
<Points>
<DataArray  type="Float64"  NumberOfComponents="3"  format="ascii">0 0 0  1 0 0  0 1 0  0 0 1  0.09999999999981467 0 0  0.1999999999995579 0 0  0.2999999999992664 0 0  0.3999999999989749 0 0  0.4999999999986943 0 0  0.5999999999989468 0 0  0.69999999999921 0 0  0.7999999999994734 0 0  0.8999999999997368 0 0  0 0.09999999999981467 0  0 0.1999999999995579 0  0 0.2999999999992664 0  0 0.3999999999989749 0  0 0.4999999999986943 0  0 0.5999999999989468 0  0 0.69999999999921 0  0 0.7999999999994734 0  0 0.8999999999997368 0  0 0 0.09999999999981467  0 0 0.1999999999995579  0 0 0.2999999999992664  0 0 0.3999999999989749  0 0 0.4999999999986943  0 0 0.5999999999989468  0 0 0.69999999999921  0 0 0.7999999999994734  0 0 0.8999999999997368  0.9951847266502585 0.09801714055230534 0  0.9807852803038259 0.1950903225158687 0  0.9569403355024331 0.2902846780119318 0  0.9238795320817892 0.3826834334019886 0  0.8819212636904032 0.4713967380569389 0  0.8314696113679687 0.5555702344182949 0  0.7730104520841969 0.6343932857215511 0  0.7071067795733449 0.7071067827997501 0  0.634393282646958 0.7730104546074502 0  0.5555702316245595 0.8314696132346829 0  0.471396735522105 0.8819212650453002 0  0.3826834312318057 0.9238795329807084 0  0.2902846763682919 0.9569403360010258 0  0.1950903214145686 0.980785280522888 0  0.0980171400302339 0.995184726701678 0  0.9951847266502585 0 0.09801714055230534  0.9807852803038259 0 0.1950903225158687  0.9569403355024331 0 0.2902846780119318  0.9238795320817892 0 0.3826834334019886  0.8819212636904032 0 0.4713967380569389  0.8314696113679687 0 0.5555702344182949  0.7730104520841969 0 0.6343932857215511  0.7071067795733449 0 0.7071067827997501  0.634393282646958 0 0.7730104546074502  0.5555702316245595 0 0.8314696132346829  0.471396735522105 0 0.8819212650453002  0.3826834312318057 0 0.9238795329807084  0.2902846763682919 0 0.9569403360010258  0.1950903214145686 0 0.980785280522888  0.0980171400302339 0 0.995184726701678  0 0.9951847266502585 0.09801714055230534  0 0.9807852803038259 0.1950903225158687  0 0.9569403355024331 0.2902846780119318  0 0.9238795320817892 0.3826834334019886  0 0.8819212636904032 0.4713967380569389  0 0.8314696113679687 0.5555702344182949  0 0.7730104520841969 0.6343932857215511  0 0.7071067795733449 0.7071067827997501  0 0.634393282646958 0.7730104546074502  0 0.5555702316245595 0.8314696132346829  0 0.471396735522105 0.8819212650453002  0 0.3826834312318057 0.9238795329807084  0 0.2902846763682919 0.9569403360010258  0 0.1950903214145686 0.980785280522888  0 0.0980171400302339 0.995184726701678  0.09240154966779951 0 0.3658235692199516  0.07916357488785433 0 0.4469199030523527  0.1536813483092524 0 0.4301465381022301  0.2555379022644893 0 0.09556049568595243  0.1864593291765566 0 0.2034979771761179  0.301651764011142 0 0.1939053326038485  0.1881720785854029 0 0.3302588474155368  0.08403438330774521 0 0.6437268466185475  0.09138388892861184 0 0.5324072873297468  0.1930859140709486 0 0.7878139522981464  0.2165176696171426 0 0.900824597607195  0.292033522918994 0 0.8485491372975176  0.8037370491763215 0 0.0819245024222376  0.13014171782822 0 0.8868491929551598  0.08390174260734276 0 0.8253161934654943  0.0912526277304111 0 0.7448765232291942  0.8893622411880446 0 0.270275215225845  0.8593018882538136 0 0.1801969264281539  0.8024703672696746 0 0.2475353432181931  0.3476914857890963 0 0.4125368919261175  0.2997235777995208 0 0.3096876237048341  0.2490386282757974 0 0.412527605219857  0.4554126154120848 0 0.2518749964366375  0.39715257119151 0 0.3258159451822259  0.4883877361055989 0 0.3266984434363212  0.08966539318254355 0 0.2701713986717769  0.08377502767602918 0 0.164580120521203  0.3869558528229924 0 0.8037364723405749  0.1791913905804899 0 0.6945879747883159  0.1628348997531483 0 0.5951991143072877  0.2434219731662663 0 0.6106761106298939  0.3204481765543245 0 0.6201302437713152  0.2846206283417919 0 0.7159219267704837  0.3832252637688779 0 0.6893291551637116  0.1561812521325313 0 0.09527745928338882  0.8122499659106144 0 0.3273472587872134  0.2026260329838435 0 0.5147603927306801  0.3051207491780334 0 0.5196560474248884  0.5886190882535927 0 0.5879547877726188  0.5628286668856228 0 0.4841066442899339  0.4793970684942127 0 0.5419440173923771  0.4015076433379883 0 0.1595345792024606  0.4550663848726773 0 0.08400234057127416  0.3574412370957718 0 0.08514557536940835  0.4777735346904641 0 0.6420237002140541  0.5886050303809575 0 0.712791733722679  0.7032448955145116 0 0.5547060123784804  0.3710082806848816 0 0.2384994559961529  0.6343947712920404 0 0.1960314230465952  0.7205780420889929 0 0.2811987241304542  0.745939430962431 0 0.1834190974026157  0.6797060130425652 0 0.1027709852058109  0.5617353506566283 0 0.09368054426051139  0.5099863318045709 0 0.1736146479983669  0.767516113391133 0 0.4796577434100839  0.6547738563668709 0 0.4463662193850245  0.4595209371514753 0 0.4253249285837939  0.3873123962753185 0 0.4899626124422253  0.3876250349852705 0 0.5839247669697213  0.07755778095112512 0 0.07322480571131515  0.6662618639536104 0 0.6404224526940073  0.6281317226641706 0 0.5172795154653362  0.5467991787548994 0 0.2775110285514451  0.6382784164401777 0 0.32558335190295  0.7209625386664502 0 0.3760300013763025  0.4777689774710401 0 0.7650512433185178  0.8150026845526732 0 0.4083495007681245  0.5566757769165783 0 0.3852531587967231  0.08307535298787436 0 0.9466352209487393  0.9264479164039098 0 0.09196696687313166  0.2397696045481275 0 0.2516617606603849  0.08142379610690136 0.4255946222877561 0.9012432429190713  0.09186671735860186 0.5103340042487068 0.8550553843753256  0.9658493887414453 0.07517233868428744 0.2479598309495128  0.2588669386047153 0.4173196613385269 0.8711097567802347  0.349931687668115 0.4640670731596268 0.8137503091088829  0.2521091443082024 0.5198490772623717 0.8162094806026494  0.3381706165708041 0.3470207631890471 0.8747669541105296  0.4127313919422814 0.6915412096022421 0.5928098797483512  0.505094034203222 0.6002477622197614 0.6201472732847281  0.5053541985510116 0.6749299798537994 0.5376677936248502  0.5711974176563547 0.6081084457949028 0.5513053856218164  0.2265606352222516 0.3190644824037021 0.9202543858282597  0.1657801920411619 0.4763492767397394 0.8634861287110075  0.1656568208377873 0.3895779149708851 0.9059728836322062  0.501344556404584 0.2277556352228774 0.8347340932223356  0.4415367071350051 0.3068779784495727 0.8431318061816198  0.4059460944519277 0.2465220798785426 0.8800196773547647  0.6196876017566089 0.7450935593761555 0.2466229186537899  0.627698728320387 0.714123017011242 0.3098751733194038  0.6711018023358704 0.69515091935471 0.2576578549585624  0.5155953815884997 0.3094099022200982 0.7990162169147497  0.899989132227882 0.4289906012996104 0.07737328911389559  0.9382293875188548 0.3361973257557999 0.08183504475860598  0.2363183186651487 0.9697312279355392 0.06144101097726593  0.2993323950146074 0.9481462475789452 0.106858834434898  0.3101615066201264 0.2414838162804179 0.9195028038487859  0.4482922838801319 0.1771577048152243 0.8761559084079369  0.5266326972169642 0.1057746683003005 0.8434866458741044  0.4200451415729211 0.09020206018716082 0.9030092288448531  0.7623891105001969 0.5843698709159578 0.2779832695620105  0.7799115838824263 0.596929282445646 0.1881843592994147  0.7264879983305693 0.6504346235700518 0.2216979673856474  0.8178732076005444 0.5297083005156807 0.2247054353013872  0.08303734348179403 0.1922053315992417 0.9778353184930026  0.09408269694107538 0.07627092328721888 0.9926385003601306  0.1760515877647063 0.1196852712822077 0.9770779264130525  0.5576143975194612 0.3637809431371279 0.7461431558952143  0.4455986119305068 0.3912097319557027 0.8052309126385754  0.8060332204752099 0.4925189261569118 0.3282309474556054  0.7346451337886817 0.5624574787189985 0.379391765901261  0.642508165502269 0.2904084282097414 0.7091164940174894  0.7030254185009037 0.306273768786429 0.6418345888895255  0.6340141384684502 0.3769833468372913 0.6752108029567235  0.365152486570974 0.1655128603952953 0.9161163433728284  0.5962792236506059 0.542109883053058 0.5920877993497508  0.5485896415631504 0.5085733599282969 0.6636283167111371  0.5920678220815722 0.6464708649476155 0.4811768020483384  0.1878625042731283 0.2239323962641036 0.9563273296270713  0.1024217313722561 0.3092935774102874 0.9454349644028699  0.2334505071908325 0.06487815783086033 0.9702018786463037  0.4887206245964966 0.8674866792832123 0.09283863613924619  0.5742874233407752 0.8143734795796027 0.08360497084518105  0.9317006522490203 0.08389294215323394 0.3534060962343804  0.951181716421189 0.1590863374964037 0.2644709427669156  0.5455072387620422 0.7115493400103802 0.4428536882413925  0.9076276342048921 0.3867895805147213 0.1631131448807132  0.8905082493452895 0.127913990281725 0.4366154703376809  0.9096700297655037 0.1954608695184058 0.3664634844476816  0.4909557921631998 0.4638599224188366 0.7374255098075979  0.4820557633059458 0.5398846258057163 0.6900339353119844  0.4181956098394346 0.5173376920524271 0.7466419116905315  0.7346402167242096 0.09513558808181954 0.67175365414096  0.8078263850243458 0.09713596463829366 0.5813614504181416  0.2601336813274003 0.1475738587985683 0.954228706358363  0.3264256065230105 0.07648882390671821 0.9421230191559125  0.4590556119879899 0.7423895417623142 0.4879812633537003  0.6126112913498895 0.686574629053208 0.3915644065170771  0.6684671903139626 0.6091898762120843 0.4266606499250449  0.6977699223891808 0.542245960309553 0.4680667195357594  0.7549550374165268 0.4843931863016896 0.4420476586793638  0.07712060794257616 0.6883652307079324 0.7212528828247291  0.1027005936763692 0.7518617879958691 0.6512729380299598  0.9625479306552708 0.2091983633587219 0.1724457188778192  0.9825939555666527 0.1641265719497667 0.08701486576382911  0.964839163020035 0.2492141217550538 0.08353269432177644  0.97740960683
[...]
<PointData  Vectors="Solid displacement [m]"> 
<DataArray  type="Float64"  Name="Solid displacement [m]"  NumberOfComponents="3" format="ascii">0.0000000000000000e+00 0.0000000000000000e+00 0.0000000000000000e+00  -1.6144188791010669e-01 0.0000000000000000e+00 0.0000000000000000e+00  0.0000000000000000e+00 -1.6144156639959445e-01 0.0000000000000000e+00  0.0000000000000000e+00 0.0000000000000000e+00 -1.6144304855212677e-01  -1.5559129138718326e-02 0.0000000000000000e+00 0.0000000000000000e+00  -3.1168963138955019e-02 0.0000000000000000e+00 0.0000000000000000e+00  -4.6864642016531240e-02 0.0000000000000000e+00 0.0000000000000000e+00  -6.2686667747686886e-02 0.0000000000000000e+00 0.0000000000000000e+00  -7.8670280498333939e-02 0.0000000000000000e+00 0.0000000000000000e+00  -9.4835135807449303e-02 0.0000000000000000e+00 0.0000000000000000e+00  -1.1119653857939481e-01 0.0000000000000000e+00 0.0000000000000000e+00  -1.2775717344587897e-01 0.0000000000000000e+00 0.0000000000000000e+00  -1.4451077519829272e-01 0.0000000000000000e+00 0.0000000000000000e+00  0.0000000000000000e+00 -1.5559695854362118e-02 0.0000000000000000e+00  0.0000000000000000e+00 -3.1165885555912501e-02 0.0000000000000000e+00  0.0000000000000000e+00 -4.6861181049509378e-02 0.0000000000000000e+00  0.0000000000000000e+00 -6.2685884181832172e-02 0.0000000000000000e+00  0.0000000000000000e+00 -7.8669311090265925e-02 0.0000000000000000e+00  0.0000000000000000e+00 -9.4834596847387057e-02 0.0000000000000000e+00  0.0000000000000000e+00 -1.1119582924230502e-01 0.0000000000000000e+00  0.0000000000000000e+00 -1.2775766575855332e-01 0.0000000000000000e+00  0.0000000000000000e+00 -1.4451253346790169e-01 0.0000000000000000e+00  0.0000000000000000e+00 0.0000000000000000e+00 -1.5559373394720685e-02  0.0000000000000000e+00 0.0000000000000000e+00 -3.1168043685297943e-02  0.0000000000000000e+00 0.0000000000000000e+00 -4.6862657818684497e-02  0.0000000000000000e+00 0.0000000000000000e+00 -6.2685280771298674e-02  0.0000000000000000e+00 0.0000000000000000e+00 -7.8669398762715989e-02  0.0000000000000000e+00 0.0000000000000000e+00 -9.4834436422864751e-02  0.0000000000000000e+00 0.0000000000000000e+00 -1.1119480752089346e-01  0.0000000000000000e+00 0.0000000000000000e+00 -1.2775654175476303e-01  0.0000000000000000e+00 0.0000000000000000e+00 -1.4451239183700840e-01  -1.6066481737619540e-01 -1.5825176895245666e-02 0.0000000000000000e+00  -1.5833995233136453e-01 -3.1496462406569371e-02 0.0000000000000000e+00  -1.5448969322700326e-01 -4.6864991664422345e-02 0.0000000000000000e+00  -1.4915164320437796e-01 -6.1781259376008306e-02 0.0000000000000000e+00  -1.4237816685915905e-01 -7.6102308554534967e-02 0.0000000000000000e+00  -1.3423458748267772e-01 -8.9691267947523218e-02 0.0000000000000000e+00  -1.2479448401454654e-01 -1.0241977831404847e-01 0.0000000000000000e+00  -1.1415563810161303e-01 -1.1415845890558242e-01 0.0000000000000000e+00  -1.0241479530253002e-01 -1.2479827295006191e-01 0.0000000000000000e+00  -8.9688929267990117e-02 -1.3423516610356950e-01 0.0000000000000000e+00  -7.6104110544079048e-02 -1.4237694875221532e-01 0.0000000000000000e+00  -6.1778213247844931e-02 -1.4915208115280740e-01 0.0000000000000000e+00  -4.6864420012025933e-02 -1.5448726887903411e-01 0.0000000000000000e+00  -3.1495760234544236e-02 -1.5833871970465688e-01 0.0000000000000000e+00  -1.5825984627260477e-02 -1.6066486783978898e-01 0.0000000000000000e+00  -1.6066528854680034e-01 0.0000000000000000e+00 -1.5824983524483614e-02  -1.5834075789450780e-01 0.0000000000000000e+00 -3.1493501067817974e-02  -1.5448993743678943e-01 0.0000000000000000e+00 -4.6865655764916359e-02  -1.4915530858007614e-01 0.0000000000000000e+00 -6.1777777361801803e-02  -1.4238035414079567e-01 0.0000000000000000e+00 -7.6105825069699637e-02  -1.3423307888587555e-01 0.0000000000000000e+00 -8.9696925560025939e-02  -1.2479526494918229e-01 0.0000000000000000e+00 -1.0241796231382116e-01  -1.1415933216759343e-01 0.0000000000000000e+00 -1.1415476726103883e-01  -1.0241468227316929e-01 0.0000000000000000e+00 -1.2480053539492830e-01  -8.9690073039416313e-02 0.0000000000000000e+00 -1.3423398165992806e-01  -7.6105091214291529e-02 0.0000000000000000e+00 -1.4237730852848160e-01  -6.1783877453135023e-02 0.0000000000000000e+00 -1.4915347378239768e-01  -4.6864625784540016e-02 0.0000000000000000e+00 -1.5449245681038060e-01  -3.1490591710534095e-02 0.0000000000000000e+00 -1.5834167646757305e-01  -1.5825073558118765e-02 0.0000000000000000e+00 -1.6066670556150889e-01  0.0000000000000000e+00 -1.6066352819846699e-01 -1.5830406897581587e-02  0.0000000000000000e+00 -1.5833719097594245e-01 -3.1496865443722995e-02  0.0000000000000000e+00 -1.5448519177150613e-01 -4.6868614283310295e-02  0.0000000000000000e+00 -1.4915077952373959e-01 -6.1779091720240736e-02  0.0000000000000000e+00 -1.4237627194077015e-01 -7.6102375620377721e-02  0.0000000000000000e+00 -1.3423558508067035e-01 -8.9686213201734880e-02  0.0000000000000000e+00 -1.2479422901896395e-01 -1.0241792084360714e-01  0.0000000000000000e+00 -1.1415786533392244e-01 -1.1415264435474651e-01  0.0000000000000000e+00 -1.0241737550012872e-01 -1.2479373209207062e-01  0.0000000000000000e+00 -8.9689850739109594e-02 -1.3423337162185045e-01  0.0000000000000000e+00 -7.6102755324643584e-02 -1.4237729008226785e-01  0.0000000000000000e+00 -6.1778506832685612e-02 -1.4915232185672200e-01  0.0000000000000000e+00 -4.6864420818399699e-02 -1.5448889973003366e-01  0.0000000000000000e+00 -3.1498850983349334e-02 -1.5833992388514948e-01  0.0000000000000000e+00 -1.5828704946453939e-02 -1.6066572285138067e-01  -1.4469707685044337e-02 0.0000000000000000e+00 -5.7284044702717765e-02  -1.2433469924122580e-02 0.0000000000000000e+00 -7.0183290002665766e-02  -2.4136721680349860e-02 0.0000000000000000e+00 -6.7557612871904260e-02  -3.9890090634516130e-02 0.0000000000000000e+00 -1.4916311239100487e-02  -2.9108835542692911e-02 0.0000000000000000e+00 -3.1767852309452380e-02  -4.7206858930300660e-02 0.0000000000000000e+00 -3.0344187874456342e-02  -2.9468754137456650e-02 0.0000000000000000e+00 -5.1720928603912961e-02  -1.3315119475166707e-02 0.0000000000000000e+00 -1.0199178398918309e-01  -1.4404803613861605e-02 0.0000000000000000e+00 -8.3916015190303048e-02  -3.0854372191010455e-02 0.0000000000000000e+00 -1.2588683558615929e-01  -3.4816254381862095e-02 0.0000000000000000e+00 -1.4485398218284562e-01  -4.6884666353591578e-02 0.0000000000000000e+00 -1.3623163873923350e-01  -1.2840884142342573e-01 0.0000000000000000e+00 -1.3088120733716091e-02  -2.0893153537838712e-02 0.0000000000000000e+00 -1.4237185510741790e-01  -1.3421059714071544e-02 0.0000000000000000e+00 -1.3201097755229790e-01  -1.4534780833940388e-02 0.0000000000000000e+00 -1.1863726497952642e-01  -1.4303326860472285e-01 0.0000000000000000e+00 -4.3467809739679106e-02  -1.3781055707585935e-01 0.0000000000000000e+00 -2.8899335716064557e-02  -1.2842818258894553e-01 0.0000000000000000e+00 -3.9616369689010833e-02  -5.4801852245308508e-02 0.0000000000000000e+00 -6.5020275162533350e-02  -4.7027585949886513e-02 0.0000000000000000e+00 -4.8589589718621234e-02  -3.9154117677712950e-02 0.0000000000000000e+00 -6.4856731383688887e-02  -7.1718079429543877e-02 0.0000000000000000e+00 -3.9666413000819571e-02  -6.2525485603237424e-02 0.0000000000000000e+00 -5.1294773555699752e-02  -7.7147985600108729e-02 0.0000000000000000e+00 -5.1607213211110017e-02  -1.4000112780310735e-02 0.0000000000000000e+00 -4.2186441231648303e-02  -1.3051503954258834e-02 0.0000000000000000e+00 -2.5640377352322052e-02  -6.2105778476478392e-02 0.0000000000000000e+00 -1.2899764567527550e-01  -2.8490079551535364e-02 0.0000000000000000e+00 -1.1043557796409843e-01  -2.5758370225502640e-02 0.0000000000000000e+00 -9.4152821592882505e-02  -3.8583874158363195e-02 0.0000000000000000e+00 -9.6794987500426893e-02  -5.0898199145931917e-02 0.0000000000000000e+00 -9.8498366433801984e-02  -4.5380726501831017e-02 0.0000000000000000e+00 -1.1414816743488086e-01  -6.1161966833422898e-02 0.0000000000000000e+00 -1.1001589809851815e-01  -2.4331376187543909e-02 0.0000000000000000e+00 -1.4843151430069194e-02  -1.3024865216122034e-01 0.0000000000000000e+00 -5.2492680765383638e-02  -3.1955827788153895e-02 0.0000000000000000e+00 -8.1182495964801149e-02  -4.8233173421994957e-02 0.0000000000000000e+00 -8.2145028958674066e-02  -9.4162750028843681e-02 0.0000000000000000e+00 -9.4056901511118188e-02  -8.9604381110423958e-02 0.0000000000000000e+00 -7.7071826234017052e-02  -7.6246764545197687e-02 0.0000000000000000e+00 -8.6193435165055787e-02  -6.2997970620012542e-02 0.0000000000000000e+00 -2.5030818308120765e-02  -7.1488570314974839e-02 0.0000000000000000e+00 -1.3196195796436055e-02  -5.5953705923318067e-02 0.0000000000000000e+00 -1.3328191833410942e-02  -7.6299651697811915e-02 0.0000000000000000e+00 -1.0252958529515556e-01  -9.4637172274140188e-02 0.0000000000000000e+00 -1.1460468702969277e-01  -1.1289082960113939e-01 0.0000000000000000e+00 -8.9047588536915356e-02  -5.8233318829784622e-02 0.0000000000000000e+00 -3.7435426815014168e-02  -1.0058933905739145e-01 0.0000000000000000e+00 -3.1083113103366863e-02  -1.1490946296454696e-01 0.0000000000000000e+00 -4.4843980248151193e-02  -1.1892021803424294e-01 0.0000000000000000e+00 -2.9241419951226359e-02  -1.0790281362170286e-01 0.0000000000000000e+00 -1.6314465461531629e-02  -8.8658952703598498e-02 0.0000000000000000e+00 -1.4785141590620386e-02  -8.0378204329349029e-02 0.0000000000000000e+00 -2.7362668478639909e-02  -1.2327312146555139e-01 0.0000000000000000e+00 -7.7039145244001073e-02  -1.0452219163441237e-01 0.0000000000000000e+00 -7.1253466039813473e-02  -7.2723380694810158e-02 0.0000000000000000e+00 -6.7311825093068656e-02  -6.1292062983305452e-02 0.0000000000000000e+00 -7.7533228445654120e-02  -6.1578120392202985e-02 0.0000000000000000e+00 -9.2760619957287058e-02  -1.2069382780622917e-02 0.0000000000000000e+00 -1.1394567213139462e-02  -1.0712075253839912e-01 0.0000000000000000e+00 -1.0296708121040524e-01  -1.0038381177535274e-01 0.0000000000000000e+00 -8.2668620906627702e-02  -8.6481695636055289e-02 0.0000000000000000e+00 -4.3892299870417213e-02  -1.0147892042765926e-01 0.0000000000000000e+00 -5.1764676458532617e-02  -1.1521688892618125e-01 0.0000000000000000e+00 -6.0093821725845577e-02  -7.6721266910910885e-02 0.0000000000000000e+00 -1.2285524008713120e-01  -1.3094709153574907e-01 0.0000000000000000e+00 -6.5609705980460648e-02  -8.8323909515764576e-02 0.0000000000000000e+00 -6.1125959582661947e-02  -1.3376525889153444e-02 0.0000000000000000e+00 -1.5241891740331168e-01  -1.4901023617904682e-01 0.0000000000000000e+00 -1.4791863957796501e-02  -3.7510076681956390e-02 0.0000000000000000e+00 -3.9368837782674394e-02  -1.3146500380258976e-02 -6.8706279104230911e-02 -1.4549782566437897e-01  -1.4831797074015649e-02 -8.2387902505885416e-02 -1.3804047884937315e-01  -1.5592867624395934e-01 -1.2137563649167626e-02 -4.0032508404677362e-02  -4.1793578070258554e-02 -6.7371784744282154e-02 -1.4062716683596152e-01  -5.6488461613681339e-02 -7.4915235631997354e-02 -1.3137025933035851e-01  -4.0702985277381504e-02 -8.3921197701188582e-02 -1.3176637180288125e-01  -5.4592766285644898e-02 -5.6025849126821306e-02 -1.4121796764607608e-01  -6.6629523918811287e-02 -1.1163836011663750e-01 -9.5701569564582506e-02  -8.1536249790392881e-02 -9.6905566547066460e-02 -1.0011445574956798e-01  -8.1578925324400448e-02 -1.0895932308660546e-01 -8.6802081576337023e-02  -9.2208985806584445e-02 -9.8173385976219371e-02 -8.9004023672435886e-02  -3.6576822650069188e-02 -5.1510264892749687e-02 -1.4856347547492232e-01  -2.6767655398812353e-02 -7.6900611368407257e-02 -1.3939969638246258e-01  -2.6745778536301414e-02 -6.2892433010270865e-02 -1.4625944924760631e-01  -8.0936606605211112e-02 -3.6770291579636620e-02 -1.3475947249546891e-01  -7.1276826411348582e-02 -4.9547222990387503e-02 -1.3611396610555349e-01  -6.5532652399918540e-02 -3.9803977647728722e-02 -1.4207001127978000e-01  -1.0004113589669125e-01 -1.2028931835918183e-01 -3.9815784850538778e-02  -1.0133407751217735e-01 -1.1528821850299756e-01 -5.0030342930801920e-02  -1.0834266059311060e-01 -1.1222521894555744e-01 -4.1597452443741974e-02  -8.3234668152316157e-02 -4.9954896441793746e-02 -1.2899274938020369e-01  -1.4529414770743854e-01 -6.9256540735493546e-02 -1.2493180671908636e-02  -1.5146791297165185e-01 -5.4277243304627479e-02 -1.3212825434362148e-02  -3.8152616198729922e-02 -1.5655325084451238e-01 -9.9214692790953879e-03  -4.8323532339044392e-02 -1.5306753117763164e-01 -1.7256160346851349e-02  -5.0070040534781826e-02 -3.8990376307293649e-02 -1.4844300537528149e-01  -7.2373429042848048e-02 -2.8602076156775930e-02 -1.4144818546572135e-01  -8.5018891190892926e-02 -1.7075964334490518e-02 -1.3617438840257531e-01  -6.7815398571640123e-02 -1.4562978345346851e-02 -1.4578383921565885e-01  -1.2307880577861710e-01 -9.4338802971483990e-02 -4.4882343005310396e-02  -1.2590885252627962e-01 -9.6368990979183375e-02 -3.0383945009812369e-02  -1.1728379812510514e-01 -1.0500643295516830e-01 -3.5792825547520571e-02  -1.3203695328688481e-01 -8.5514772227363034e-02 -3.6280089585446026e-02  -1.3407243696644927e-02 -3.1033458367671504e-02 -1.5786217513337639e-01  -1.5189472345773541e-02 -1.2316580853208069e-02 -1.6025448360089040e-01  -2.8419379773176549e-02 -1.9325914472060186e-02 -1.5774163543622338e-01  -9.0017764677998061e-02 -5.8730773808921069e-02 -1.2045718343385213e-01  -7.1932847023170390e-02 -6.3156995625295753e-02 -1.2999532587126014e-01  -1.3012248040580793e-01 -7.9513491092220973e-02 -5.2991582078783732e-02  -1.1859998658292940e-01 -9.0801651158270727e-02 -6.1248039323217839e-02  -1.0372531295680537e-01 -4.6885570308030498e-02 -1.1447995871373208e-01  -1.1349469165486654e-01 -4.9447464974545913e-02 -1.0361797224276496e-01  -1.0235400998869648e-01 -6.0860786283813521e-02 -1.0900575952173819e-01  -5.8948566250476064e-02 -2.6724085383171527e-02 -1.4789912013289527e-01  -9.6261528974476915e-02 -8.7518060239171774e-02 -9.5585961138519124e-02  -8.8562055338309964e-02 -8.2106453928740164e-02 -1.0713542667628773e-01  -9.5580778174636186e-02 -1.0436642594841219e-01 -7.7681877997312257e-02  -3.0328315130082585e-02 -3.6156535898237904e-02 -1.5438820596917219e-01  -1.6536665701900908e-02 -4.9932983896073257e-02 -1.5263016956739525e-01  -3.7687685001867685e-02 -1.0476459231469009e-02 -1.5663383617341892e-01  -7.8897903704769637e-02 -1.4004813001691038e-01 -1.4989371405189337e-02  -9.2712639291208501e-02 -1.3147430739140784e-01 -1.3497317862865127e-02  -1.5041553938499072e-01 -1.3547898342416426e-02 -5.7051378773577681e-02  -1.5355771587826539e-01 -2.5684755210650220e-02 -4.2698871345070562e-02  -8.8063399410494417e-02 -1.1487218931683198e-01 -7.1495724745734804e-02  -1.4652688953584081e-01 -6.2444407715997033e-02 -2.6333720698646507e-02  -1.4376686752667742e-01 -2.0654297990109264e-02 -7.0485776819832133e-02  -1.4685869471312704e-01 -3.1555835652514845e-02 -5.9158776133748356e-02  -7.9257339725431142e-02 -7.4883722156214402e-02 -1.1905008452609667e-01  -7.7818722208103666e-02 -8.7160636985296344e-02 -1.1139687902841103e-01  -6.7508892003421667e-02 -8.3519607465208895e-02 -1.2053575077554696e-01  -1.1860183618385244e-01 -1.5359525223251782e-02 -1.0844773715801939e-01  -1.3041554765587143e-01 -1.5682192994851546e-02 -9.3858986571241629e-02  -4.1996916282889166e-02 -2.3830931060667720e-02 -1.5405111694547113e-01  -5.2699791161594525e-02 -1.2352079309157870e-02 -1.5209937952155422e-01  -7.4104827289063605e-02 -1.1984953312409469e-01 -7.8781851341405543e-02  -9.8898801680284046e-02 -1.1083931163942591e-01 -6.3215670987123065e-02  -1.0791529838146767e-01 -9.8348687381541525e-02 -6.8878635197605426e-02  -1.1264801334009834e-01 -8.7538422319524481e-02 -7.5565247431162802e-02  -1.2187827702659160e-01 -7.8199912256250892e-02 -7.1364042763063892e-02  -1.2450257018393951e-02 -1.1113124883936541e-01 -1.1643839503329044e-01  -1.6581828097753822e-02 -1.2138137821729457e-01 -1.0513949268583429e-01  -1.5539379386404245e-01 -3.3773314427983751e-02 -2.7841627230805490e-02  -1.5863161585997138e-01 -2.6496668150026000e-02 -1.4048893860258779e-02  -1.5576450129960595e-01 -4.0234340487439922e-02 -1.3486950973411944e-02  -1.5779432198007809e-01 -1.8274624847820560e-02 -2.8815575553936667e-02  -1.2329893117509290e-01 -5.0457908831920757e-02 -9.1181889383535220e-02  -1.1287300651424388e-01 -6.3247202033939146e-02 -9.6550618911421027e-02  -1.5032956533471803e-01 -4.1105350126058392e-02 -4.2121509295567669e-02  -1.1284749531793986e-02 -1.3057777324554820e-01 -9.4261424277721328e-02  -2.8011812478804143e-02 -1.3018171221856922e-01 -9.1271265828974948e-02  -5.4796144102996769e-02 -9.0727999295726766e-02 -1.2176754773997975e-01  -1.1039134124707459e-01 -7.8220905031794963e-02 -8.8078360662560029e-02  -1.0041590080734224e-01 -7.4176638129783951e-02 -1.0235732266991766e-01  -1.8344895038438780e-02 -1.3888984595935719e-01 -8.0221354701912995e-02  -3.5988585268166631e-02 -1.3727532652400123e-01 -7.6957657426643178e-02  -2.7193684792141886e-02 -1.4505877157118782e-01 -6.5426016124131833e-02  -1.0297509395973638e-01 -9.2730795329225499e-02 -8.2823577222791406e-02  -9.2143103658773137e-02 -7.0910160411629383e-02 -1.1199995744962155e-01  -1.5165970976080057e-01 -4.8037001089951632e-02 -2.7471789742186285e-02  -1.9372015897704906e-02 -1.5195213159912438e-01 -5.0963729024139204e-02  -3.6075399335057858e-02 -1.4915327205655840e-01 -5.0138411425532770e-02  -2.8961800363015627e-02 -1.5455309290999730e-01 -3.6558211199685546e-02  -4.7614759377789612e-02 -1.5029685959091152e-01 -3.4719746653563026e-02  -4.2697212689556070e-02 -1.2851498730907870e-01 -8.7882200029913621e-02  -3.5167366757253155e-02 -1.2087378962716776e-01 -1.0106965737328526e-01  -1.3952380945374160e-01 -7.6803072943278289e-02 -2.6402430359263686e-02  -1.3936182957773327e-01 -7.1488160165188330e-02 -3.9122749061248824e-02  -1.3667346797454269e-01 -2.4458330558500812e-02 -8.2378545461764832e-02  -1.3948043560242501e-01 -3.4480701482021106e-02 -7.3619265877172851e-02  -1.3052805956596486e-01 -3.4779764712774337e-02 -8.8408844440364259e-02  -1.3332719162601780e-01 -5.0434533961152918e-02 -7.5785293389483449e-02  -1.3184453439428598e-01 -9.0628172662839027e-02 -2.1607470657068514e-02  -1.3777760745872439e-01 -8.3283219312507914e-02 -1.2017095952750648e-02  -1.3081941153053422e-01 -9.4081805406495786e-02 -9.9293963708527201e-03  -6.7318562916133015e-02 -9.6639290721639584e-02 -1.1041037671065672e-01  -1.4610875682335706e-01 -5.5844565761680905e-02 -3.9957676872399844e-02  -1.2307072046142568e-01 -1.0264001318177191e-01 -1.9547532177474514e-02  -5.7941076601643875e-02 -1.5029580596653788e-01 -1.0810968813377855e-02  -1.3819265458114333e-01 -6.6163765793168142e-02 -5.0875611513834844e-02  -4.1931070697008382e-02 -9.7982128871810528e-02 -1.2125687051842883e-01  -2.6679156626458554e-02 -9.1752469139288348e-02 -1.3012473800478183e-01  -3.0991633462591588e-02 -1.0294338436610764e-01 -1.2043629264563152e-01  -4.1940154510328988e-02 -1.1137139147402472e-01 -1.0908463803352399e-01  -2.6308945660361144e-02 -1.1210820670531238e-01 -1.1314647618171561e-01  -1.1464702652147053e-01 -3.3304349556848627e-02 -1.0867203718154440e-01  -1.0939712148599399e-01 -2.2113018290439657e-02 -1.1664776540628900e-01  -1.4405423025273387e-01 -4.9596504573562482e-02 -5.3404967243953036e-02  -9.9144887951488334e-02 -1.5780425871282772e-02 -1.2643146831227486e-01  -1.0263355522286109e-01 -3.1986939743065046e-02 -1.2044216411746889e-01  -1.0772239079129603e-01 -9.9465411814934970e-03 -1.1983740882932678e-01  -1.4083650543113629e-01 -4.3988443653367265e-02 -6.5524650402938353e-02  -1.3816433109264262e-01 -5.6526904739534298e-02 -6.1473020577762265e-02  -8.4656901946855226e-02 -1.3487718973637203e-01 -2.6538043497669424e-02  -9.0837070448538171e-02 -1.2798249560252531e-01 -3.7840754772590343e-02  -9.6792910720815376e-02 -1.2658529508999661e-01 -2.5890961803504604e-02  -8.0060750127313798e-02 -1.3334803721572677e-01 -4.3255948946184120e-02  -7.9020692258115824e-02 -1.241303