<?xml version="1.0"?>
<VTKFile type="UnstructuredGrid"  version="0.1"  >
<UnstructuredGrid>
<Piece  NumberOfPoints="597" NumberOfCells="2124">
<Points>
<DataArray  type="Float64"  NumberOfComponents="3"  format="ascii">0 0 0  1 0 0  0 1 0  0 0 1  0.09999999999981467 0 0  0.1999999999995579 0 0  0.2999999999992664 0 0  0.3999999999989749 0 0  0.4999999999986943 0 0  0.5999999999989468 0 0  0.69999999999921 0 0  0.7999999999994734 0 0  0.8999999999997368 0 0  0 0.09999999999981467 0  0 0.1999999999995579 0  0 0.2999999999992664 0  0 0.3999999999989749 0  0 0.4999999999986943 0  0 0.5999999999989468 0  0 0.69999999999921 0  0 0.7999999999994734 0  0 0.8999999999997368 0  0 0 0.09999999999981467  0 0 0.1999999999995579  0 0 0.2999999999992664  0 0 0.3999999999989749  0 0 0.4999999999986943  0 0 0.5999999999989468  0 0 0.69999999999921  0 0 0.7999999999994734  0 0 0.8999999999997368  0.9951847266502585 0.09801714055230534 0  0.9807852803038259 0.1950903225158687 0  0.9569403355024331 0.2902846780119318 0  0.9238795320817892 0.3826834334019886 0  0.8819212636904032 0.4713967380569389 0  0.8314696113679687 0.5555702344182949 0  0.7730104520841969 0.6343932857215511 0  0.7071067795733449 0.7071067827997501 0  0.634393282646958 0.7730104546074502 0  0.5555702316245595 0.8314696132346829 0  0.471396735522105 0.8819212650453002 0  0.3826834312318057 0.9238795329807084 0  0.2902846763682919 0.9569403360010258 0  0.1950903214145686 0.980785280522888 0  0.0980171400302339 0.995184726701678 0  0.9951847266502585 0 0.09801714055230534  0.9807852803038259 0 0.1950903225158687  0.9569403355024331 0 0.2902846780119318  0.9238795320817892 0 0.3826834334019886  0.8819212636904032 0 0.4713967380569389  0.8314696113679687 0 0.5555702344182949  0.7730104520841969 0 0.6343932857215511  0.7071067795733449 0 0.7071067827997501  0.634393282646958 0 0.7730104546074502  0.5555702316245595 0 0.8314696132346829  0.471396735522105 0 0.8819212650453002  0.3826834312318057 0 0.9238795329807084  0.2902846763682919 0 0.9569403360010258  0.1950903214145686 0 0.980785280522888  0.0980171400302339 0 0.995184726701678  0 0.9951847266502585 0.09801714055230534  0 0.9807852803038259 0.1950903225158687  0 0.9569403355024331 0.2902846780119318  0 0.9238795320817892 0.3826834334019886  0 0.8819212636904032 0.4713967380569389  0 0.8314696113679687 0.5555702344182949  0 0.7730104520841969 0.6343932857215511  0 0.7071067795733449 0.7071067827997501  0 0.634393282646958 0.7730104546074502  0 0.5555702316245595 0.8314696132346829  0 0.471396735522105 0.8819212650453002  0 0.3826834312318057 0.9238795329807084  0 0.2902846763682919 0.9569403360010258  0 0.1950903214145686 0.980785280522888  0 0.0980171400302339 0.995184726701678  0.09240154966779951 0 0.3658235692199516  0.07916357488785433 0 0.4469199030523527  0.1536813483092524 0 0.4301465381022301  0.2555379022644893 0 0.09556049568595243  0.1864593291765566 0 0.2034979771761179  0.301651764011142 0 0.1939053326038485  0.1881720785854029 0 0.3302588474155368  0.08403438330774521 0 0.6437268466185475  0.09138388892861184 0 0.5324072873297468  0.1930859140709486 0 0.7878139522981464  0.2165176696171426 0 0.900824597607195  0.292033522918994 0 0.8485491372975176  0.8037370491763215 0 0.0819245024222376  0.13014171782822 0 0.8868491929551598  0.08390174260734276 0 0.8253161934654943  0.0912526277304111 0 0.7448765232291942  0.8893622411880446 0 0.270275215225845  0.8593018882538136 0 0.1801969264281539  0.8024703672696746 0 0.2475353432181931  0.3476914857890963 0 0.4125368919261175  0.2997235777995208 0 0.3096876237048341  0.2490386282757974 0 0.412527605219857  0.4554126154120848 0 0.2518749964366375  0.39715257119151 0 0.3258159451822259  0.4883877361055989 0 0.3266984434363212  0.08966539318254355 0 0.2701713986717769  0.08377502767602918 0 0.164580120521203  0.3869558528229924 0 0.8037364723405749  0.1791913905804899 0 0.6945879747883159  0.1628348997531483 0 0.5951991143072877  0.2434219731662663 0 0.6106761106298939  0.3204481765543245 0 0.6201302437713152  0.2846206283417919 0 0.7159219267704837  0.3832252637688779 0 0.6893291551637116  0.1561812521325313 0 0.09527745928338882  0.8122499659106144 0 0.3273472587872134  0.2026260329838435 0 0.5147603927306801  0.3051207491780334 0 0.5196560474248884  0.5886190882535927 0 0.5879547877726188  0.5628286668856228 0 0.4841066442899339  0.4793970684942127 0 0.5419440173923771  0.4015076433379883 0 0.1595345792024606  0.4550663848726773 0 0.08400234057127416  0.3574412370957718 0 0.08514557536940835  0.4777735346904641 0 0.6420237002140541  0.5886050303809575 0 0.712791733722679  0.7032448955145116 0 0.5547060123784804  0.3710082806848816 0 0.2384994559961529  0.6343947712920404 0 0.1960314230465952  0.7205780420889929 0 0.2811987241304542  0.745939430962431 0 0.1834190974026157  0.6797060130425652 0 0.1027709852058109  0.5617353506566283 0 0.09368054426051139  0.5099863318045709 0 0.1736146479983669  0.767516113391133 0 0.4796577434100839  0.6547738563668709 0 0.4463662193850245  0.4595209371514753 0 0.4253249285837939  0.3873123962753185 0 0.4899626124422253  0.3876250349852705 0 0.5839247669697213  0.07755778095112512 0 0.07322480571131515  0.6662618639536104 0 0.6404224526940073  0.6281317226641706 0 0.5172795154653362  0.5467991787548994 0 0.2775110285514451  0.6382784164401777 0 0.32558335190295  0.7209625386664502 0 0.3760300013763025  0.4777689774710401 0 0.7650512433185178  0.8150026845526732 0 0.4083495007681245  0.5566757769165783 0 0.3852531587967231  0.08307535298787436 0 0.9466352209487393  0.9264479164039098 0 0.09196696687313166  0.2397696045481275 0 0.2516617606603849  0.08142379610690136 0.4255946222877561 0.9012432429190713  0.09186671735860186 0.5103340042487068 0.8550553843753256  0.9658493887414453 0.07517233868428744 0.2479598309495128  0.2588669386047153 0.4173196613385269 0.8711097567802347  0.349931687668115 0.4640670731596268 0.8137503091088829  0.2521091443082024 0.5198490772623717 0.8162094806026494  0.3381706165708041 0.3470207631890471 0.8747669541105296  0.4127313919422814 0.6915412096022421 0.5928098797483512  0.505094034203222 0.6002477622197614 0.6201472732847281  0.5053541985510116 0.6749299798537994 0.5376677936248502  0.5711974176563547 0.6081084457949028 0.5513053856218164  0.2265606352222516 0.3190644824037021 0.9202543858282597  0.1657801920411619 0.4763492767397394 0.8634861287110075  0.1656568208377873 0.3895779149708851 0.9059728836322062  0.501344556404584 0.2277556352228774 0.8347340932223356  0.4415367071350051 0.3068779784495727 0.8431318061816198  0.4059460944519277 0.2465220798785426 0.8800196773547647  0.6196876017566089 0.7450935593761555 0.2466229186537899  0.627698728320387 0.714123017011242 0.3098751733194038  0.6711018023358704 0.69515091935471 0.2576578549585624  0.5155953815884997 0.3094099022200982 0.7990162169147497  0.899989132227882 0.4289906012996104 0.07737328911389559  0.9382293875188548 0.3361973257557999 0.08183504475860598  0.2363183186651487 0.9697312279355392 0.06144101097726593  0.2993323950146074 0.9481462475789452 0.106858834434898  0.3101615066201264 0.2414838162804179 0.9195028038487859  0.4482922838801319 0.1771577048152243 0.8761559084079369  0.5266326972169642 0.1057746683003005 0.8434866458741044  0.4200451415729211 0.09020206018716082 0.9030092288448531  0.7623891105001969 0.5843698709159578 0.2779832695620105  0.7799115838824263 0.596929282445646 0.1881843592994147  0.7264879983305693 0.6504346235700518 0.2216979673856474  0.8178732076005444 0.5297083005156807 0.2247054353013872  0.08303734348179403 0.1922053315992417 0.9778353184930026  0.09408269694107538 0.07627092328721888 0.9926385003601306  0.1760515877647063 0.1196852712822077 0.9770779264130525  0.5576143975194612 0.3637809431371279 0.7461431558952143  0.4455986119305068 0.3912097319557027 0.8052309126385754  0.8060332204752099 0.4925189261569118 0.3282309474556054  0.7346451337886817 0.5624574787189985 0.379391765901261  0.642508165502269 0.2904084282097414 0.7091164940174894  0.7030254185009037 0.306273768786429 0.6418345888895255  0.6340141384684502 0.3769833468372913 0.6752108029567235  0.365152486570974 0.1655128603952953 0.9161163433728284  0.5962792236506059 0.542109883053058 0.5920877993497508  0.5485896415631504 0.5085733599282969 0.6636283167111371  0.5920678220815722 0.6464708649476155 0.4811768020483384  0.1878625042731283 0.2239323962641036 0.9563273296270713  0.1024217313722561 0.3092935774102874 0.9454349644028699  0.2334505071908325 0.06487815783086033 0.9702018786463037  0.4887206245964966 0.8674866792832123 0.09283863613924619  0.5742874233407752 0.8143734795796027 0.08360497084518105  0.9317006522490203 0.08389294215323394 0.3534060962343804  0.951181716421189 0.1590863374964037 0.2644709427669156  0.5455072387620422 0.7115493400103802 0.4428536882413925  0.9076276342048921 0.3867895805147213 0.1631131448807132  0.8905082493452895 0.127913990281725 0.4366154703376809  0.9096700297655037 0.1954608695184058 0.3664634844476816  0.4909557921631998 0.4638599224188366 0.7374255098075979  0.4820557633059458 0.5398846258057163 0.6900339353119844  0.4181956098394346 0.5173376920524271 0.7466419116905315  0.7346402167242096 0.09513558808181954 0.67175365414096  0.8078263850243458 0.09713596463829366 0.5813614504181416  0.2601336813274003 0.1475738587985683 0.954228706358363  0.3264256065230105 0.07648882390671821 0.9421230191559125  0.4590556119879899 0.7423895417623142 0.4879812633537003  0.6126112913498895 0.686574629053208 0.3915644065170771  0.6684671903139626 0.6091898762120843 0.4266606499250449  0.6977699223891808 0.542245960309553 0.4680667195357594  0.7549550374165268 0.4843931863016896 0.4420476586793638  0.07712060794257616 0.6883652307079324 0.7212528828247291  0.1027005936763692 0.7518617879958691 0.6512729380299598  0.9625479306552708 0.2091983633587219 0.1724457188778192  0.9825939555666527 0.1641265719497667 0.08701486576382911  0.964839163020035 0.2492141217550538 0.08353269432177644  0.97740960683
[...]
<PointData  Vectors="Solid displacement [m]"> 
<DataArray  type="Float64"  Name="Solid displacement [m]"  NumberOfComponents="3" format="ascii">0.0000000000000000e+00 0.0000000000000000e+00 0.0000000000000000e+00  -1.5851496380191571e-01 0.0000000000000000e+00 0.0000000000000000e+00  0.0000000000000000e+00 -1.5851447348013578e-01 0.0000000000000000e+00  0.0000000000000000e+00 0.0000000000000000e+00 -1.5851675994465364e-01  -1.4939514183051941e-02 0.0000000000000000e+00 0.0000000000000000e+00  -2.9957963137888718e-02 0.0000000000000000e+00 0.0000000000000000e+00  -4.5110080084651741e-02 0.0000000000000000e+00 0.0000000000000000e+00  -6.0459004341750285e-02 0.0000000000000000e+00 0.0000000000000000e+00  -7.6059747957134605e-02 0.0000000000000000e+00 0.0000000000000000e+00  -9.1943069648529496e-02 0.0000000000000000e+00 0.0000000000000000e+00  -1.0813297194025583e-01 0.0000000000000000e+00 0.0000000000000000e+00  -1.2463377673421502e-01 0.0000000000000000e+00 0.0000000000000000e+00  -1.4143579932570510e-01 0.0000000000000000e+00 0.0000000000000000e+00  0.0000000000000000e+00 -1.4940391028894863e-02 0.0000000000000000e+00  0.0000000000000000e+00 -2.9953161300777419e-02 0.0000000000000000e+00  0.0000000000000000e+00 -4.5104684245611315e-02 0.0000000000000000e+00  0.0000000000000000e+00 -6.0457788669809512e-02 0.0000000000000000e+00  0.0000000000000000e+00 -7.6058244324613403e-02 0.0000000000000000e+00  0.0000000000000000e+00 -9.1942238884844221e-02 0.0000000000000000e+00  0.0000000000000000e+00 -1.0813187469950410e-01 0.0000000000000000e+00  0.0000000000000000e+00 -1.2463455252060542e-01 0.0000000000000000e+00  0.0000000000000000e+00 -1.4143855246473594e-01 0.0000000000000000e+00  0.0000000000000000e+00 0.0000000000000000e+00 -1.4939892216567219e-02  0.0000000000000000e+00 0.0000000000000000e+00 -2.9956527941870717e-02  0.0000000000000000e+00 0.0000000000000000e+00 -4.5106990070955470e-02  0.0000000000000000e+00 0.0000000000000000e+00 -6.0456845781466671e-02  0.0000000000000000e+00 0.0000000000000000e+00 -7.6058371351860332e-02  0.0000000000000000e+00 0.0000000000000000e+00 -9.1941969593558701e-02  0.0000000000000000e+00 0.0000000000000000e+00 -1.0813026281469477e-01  0.0000000000000000e+00 0.0000000000000000e+00 -1.2463277891963230e-01  0.0000000000000000e+00 0.0000000000000000e+00 -1.4143830663993165e-01  -1.5775216286579802e-01 -1.5538906243256692e-02 0.0000000000000000e+00  -1.5546933756375628e-01 -3.0925845730779940e-02 0.0000000000000000e+00  -1.5168848685895822e-01 -4.6015843789364137e-02 0.0000000000000000e+00  -1.4644684048682183e-01 -6.0661238774039727e-02 0.0000000000000000e+00  -1.3979636973246085e-01 -7.4722073958002899e-02 0.0000000000000000e+00  -1.3180126252162816e-01 -8.8064570432578135e-02 0.0000000000000000e+00  -1.2253095217937861e-01 -1.0056414859313295e-01 0.0000000000000000e+00  -1.1208543218266916e-01 -1.1208982282585843e-01 0.0000000000000000e+00  -1.0055638750779478e-01 -1.2253685656530464e-01 0.0000000000000000e+00  -8.8060937467978870e-02 -1.3180216516323148e-01 0.0000000000000000e+00  -7.4724899521050381e-02 -1.3979447446556550e-01 0.0000000000000000e+00  -6.0656498155237167e-02 -1.4644753373992569e-01 0.0000000000000000e+00  -4.6014958423666825e-02 -1.5168471707895670e-01 0.0000000000000000e+00  -3.0924753539420410e-02 -1.5546742611695433e-01 0.0000000000000000e+00  -1.5540168250162148e-02 -1.5775225391878492e-01 0.0000000000000000e+00  -1.5775289906960865e-01 0.0000000000000000e+00 -1.5538605009629346e-02  -1.5547059564633467e-01 0.0000000000000000e+00 -3.0921228318103504e-02  -1.5168886666294812e-01 0.0000000000000000e+00 -4.6016885877889206e-02  -1.4645255289018733e-01 0.0000000000000000e+00 -6.0655815946337906e-02  -1.3979976988098591e-01 0.0000000000000000e+00 -7.4727567658127936e-02  -1.3179889372463791e-01 0.0000000000000000e+00 -8.8073400768048482e-02  -1.2253215144972328e-01 0.0000000000000000e+00 -1.0056131571746407e-01  -1.1209117314940088e-01 0.0000000000000000e+00 -1.1208405815334151e-01  -1.0055618893763481e-01 0.0000000000000000e+00 -1.2254037557741823e-01  -8.8062700233845062e-02 0.0000000000000000e+00 -1.3180029958223410e-01  -7.4726411809512006e-02 0.0000000000000000e+00 -1.3979501475096415e-01  -6.0665319947943046e-02 0.0000000000000000e+00 -1.4644968287296889e-01  -4.6015268907963806e-02 0.0000000000000000e+00 -1.5169278420777593e-01  -3.0916684275836652e-02 0.0000000000000000e+00 -1.5547201223474544e-01  -1.5538744327775036e-02 0.0000000000000000e+00 -1.5775509440437091e-01  0.0000000000000000e+00 -1.5775016379176299e-01 -1.5547067164812425e-02  0.0000000000000000e+00 -1.5546504192167049e-01 -3.0926480020768851e-02  0.0000000000000000e+00 -1.5168147438837398e-01 -4.6021506323299578e-02  0.0000000000000000e+00 -1.4644549826286130e-01 -6.0657871335175882e-02  0.0000000000000000e+00 -1.3979341266708825e-01 -7.4722192025380579e-02  0.0000000000000000e+00 -1.3180281428460894e-01 -8.8056697019868388e-02  0.0000000000000000e+00 -1.2253054453434967e-01 -1.0056126258440799e-01  0.0000000000000000e+00 -1.1208889192115962e-01 -1.1208076017322161e-01  0.0000000000000000e+00 -1.0056039369165511e-01 -1.2252977569624172e-01  0.0000000000000000e+00 -8.8062354968555634e-02 -1.3179936127226699e-01  0.0000000000000000e+00 -7.4722766980968219e-02 -1.3979499829041245e-01  0.0000000000000000e+00 -6.0656938570722935e-02 -1.4644789679238954e-01  0.0000000000000000e+00 -4.6014944046636669e-02 -1.5168724510393680e-01  0.0000000000000000e+00 -3.0929563881186766e-02 -1.5546928237724086e-01  0.0000000000000000e+00 -1.5544406496083244e-02 -1.5775356225246789e-01  -1.3948893100941568e-02 0.0000000000000000e+00 -5.5220730383017738e-02  -1.2007782399820833e-02 0.0000000000000000e+00 -6.7774365923430391e-02  -2.3310019229415474e-02 0.0000000000000000e+00 -6.5243770883526592e-02  -3.8379477510190232e-02 0.0000000000000000e+00 -1.4350894732761956e-02  -2.8007740578810326e-02 0.0000000000000000e+00 -3.0565607085001018e-02  -4.5489559457231092e-02 0.0000000000000000e+00 -2.9239761250556273e-02  -2.8409115734405486e-02 0.0000000000000000e+00 -4.9861517953301002e-02  -1.2928376256757588e-02 0.0000000000000000e+00 -9.9025983361496553e-02  -1.3942429154501597e-02 0.0000000000000000e+00 -8.1218205630763013e-02  -3.0111278677121836e-02 0.0000000000000000e+00 -1.2285338296437719e-01  -3.4104792654979121e-02 0.0000000000000000e+00 -1.4189421996273621e-01  -4.5883283212970583e-02 0.0000000000000000e+00 -1.3332247135781986e-01  -1.2530156187320249e-01 0.0000000000000000e+00 -1.2771103716339816e-02  -2.0446611413850953e-02 0.0000000000000000e+00 -1.3932649310395920e-01  -1.3105938192958525e-02 0.0000000000000000e+00 -1.2890675715494979e-01  -1.4157280704554643e-02 0.0000000000000000e+00 -1.1555177539683699e-01  -1.4012375509043223e-01 0.0000000000000000e+00 -4.2583794721076339e-02  -1.3478200731131354e-01 0.0000000000000000e+00 -2.8264385125001935e-02  -1.2544988944998550e-01 0.0000000000000000e+00 -3.8697979851023266e-02  -5.3040053888689452e-02 0.0000000000000000e+00 -6.2928631351307843e-02  -4.5389563599343472e-02 0.0000000000000000e+00 -4.6896337566199819e-02  -3.7837261165522509e-02 0.0000000000000000e+00 -6.2674658628331895e-02  -6.9375618089761601e-02 0.0000000000000000e+00 -3.8371599416628543e-02  -6.0472730753047092e-02 0.0000000000000000e+00 -4.9610808633335370e-02  -7.4768267998344740e-02 0.0000000000000000e+00 -5.0015574102174394e-02  -1.3471797319335711e-02 0.0000000000000000e+00 -4.0596019666839026e-02  -1.2541796211219690e-02 0.0000000000000000e+00 -2.4639063537068021e-02  -6.0768694169628802e-02 0.0000000000000000e+00 -1.2622001210239348e-01  -2.7719899128233957e-02 0.0000000000000000e+00 -1.0745090928781863e-01  -2.4985177337985227e-02 0.0000000000000000e+00 -9.1326633515992878e-02  -3.7471433799498709e-02 0.0000000000000000e+00 -9.4003679100430657e-02  -4.9492558480958605e-02 0.0000000000000000e+00 -9.5778371602473752e-02  -4.4229103618690306e-02 0.0000000000000000e+00 -1.1125116213882819e-01  -5.9644626567363676e-02 0.0000000000000000e+00 -1.0728678688940399e-01  -2.3380875743531530e-02 0.0000000000000000e+00 -1.4263267467369580e-02  -1.2737700122708859e-01 0.0000000000000000e+00 -5.1335811962425246e-02  -3.0939516820078415e-02 0.0000000000000000e+00 -7.8600866557230670e-02  -4.6765931588443138e-02 0.0000000000000000e+00 -7.9645221356939369e-02  -9.1955496813533169e-02 0.0000000000000000e+00 -9.1852380581186374e-02  -8.7251771357130151e-02 0.0000000000000000e+00 -7.5048432525096576e-02  -7.4200943650669246e-02 0.0000000000000000e+00 -8.3880007293095166e-02  -6.0803759881780023e-02 0.0000000000000000e+00 -2.4158573824893479e-02  -6.9050226389169397e-02 0.0000000000000000e+00 -1.2746022251810542e-02  -5.3927768488795588e-02 0.0000000000000000e+00 -1.2845342991720793e-02  -7.4434803568898700e-02 0.0000000000000000e+00 -1.0002333605109003e-01  -9.2696847300719309e-02 0.0000000000000000e+00 -1.1225527371960169e-01  -1.1047270831423775e-01 0.0000000000000000e+00 -8.7141054760110817e-02  -5.6217392609999368e-02 0.0000000000000000e+00 -3.6139866732209557e-02  -9.7709092752186089e-02 0.0000000000000000e+00 -3.0193361800235918e-02  -1.1200420908244078e-01 0.0000000000000000e+00 -4.3711158944633899e-02  -1.1589392088886918e-01 0.0000000000000000e+00 -2.8497351191128350e-02  -1.0488893456892869e-01 0.0000000000000000e+00 -1.5858574935787455e-02  -8.5879754026783370e-02 0.0000000000000000e+00 -1.4321376428445857e-02  -7.7791828493036938e-02 0.0000000000000000e+00 -2.6481923119939386e-02  -1.2067036440287512e-01 0.0000000000000000e+00 -7.5412471974529952e-02  -1.0194179414194189e-01 0.0000000000000000e+00 -6.9494155142980366e-02  -7.0559926551101937e-02 0.0000000000000000e+00 -6.5309525081359232e-02  -5.9466523995065960e-02 0.0000000000000000e+00 -7.5222084939760042e-02  -5.9883355318404989e-02 0.0000000000000000e+00 -9.0206671172048253e-02  -1.1589974429306286e-02 0.0000000000000000e+00 -1.0941647391076934e-02  -1.0492317217260802e-01 0.0000000000000000e+00 -1.0085515933958870e-01  -9.7972498304687405e-02 0.0000000000000000e+00 -8.0683121980076614e-02  -8.3877014494420976e-02 0.0000000000000000e+00 -4.2571037887273247e-02  -9.8734123536327517e-02 0.0000000000000000e+00 -5.0364939571319108e-02  -1.1244780210110955e-01 0.0000000000000000e+00 -5.8649860506436460e-02  -7.5092858623980463e-02 0.0000000000000000e+00 -1.2024852012469796e-01  -1.2820962372358274e-01 0.0000000000000000e+00 -6.4238063992865288e-02  -8.5828746383763310e-02 0.0000000000000000e+00 -5.9399433562074076e-02  -1.3113586959523697e-02 0.0000000000000000e+00 -1.4941982213956775e-01  -1.4598645495441126e-01 0.0000000000000000e+00 -1.4491620609342037e-02  -3.6138071541251378e-02 0.0000000000000000e+00 -3.7927846259365024e-02  -1.2908902865805495e-02 -6.7459175163329485e-02 -1.4285962956434825e-01  -1.4563280803240652e-02 -8.0893410587970019e-02 -1.3553708399660461e-01  -1.5310178250611636e-01 -1.1918436829341813e-02 -3.9307539420479050e-02  -4.1036796587232284e-02 -6.6149699275867835e-02 -1.3807388811156596e-01  -5.5461342223913204e-02 -7.3554341570969253e-02 -1.2898672491602958e-01  -3.9966207215848724e-02 -8.2397266862148308e-02 -1.2937513722129146e-01  -5.3601766474368720e-02 -5.5011343897321971e-02 -1.3865418963112128e-01  -6.5420032088480212e-02 -1.0961126702412208e-01 -9.3964912818250548e-02  -8.0053912748257725e-02 -9.5148923608406821e-02 -9.8297494339175923e-02  -8.0096207292997088e-02 -1.0698236965410587e-01 -8.5228364534213383e-02  -9.0533663212742255e-02 -9.6393049761421656e-02 -8.7390536679006911e-02  -3.5913944581401652e-02 -5.0576315518497020e-02 -1.4586764190385379e-01  -2.6284552040121673e-02 -7.5505178100878242e-02 -1.3687058554953635e-01  -2.6261938456162554e-02 -6.1751168885403052e-02 -1.4360631943099508e-01  -7.9468415423197727e-02 -3.6104216885961771e-02 -1.3231537803185250e-01  -6.9981287160771399e-02 -4.8651391442783826e-02 -1.3364459327199035e-01  -6.4342203821794119e-02 -3.9085211885229940e-02 -1.3949311763267430e-01  -9.8226023072960508e-02 -1.1810849065426311e-01 -3.9094234713897974e-02  -9.9495296038944914e-02 -1.1319738850151774e-01 -4.9125335074281407e-02  -1.0637768750291721e-01 -1.1018985857455935e-01 -4.0843695403495715e-02  -8.1723300160788145e-02 -4.9051046212645881e-02 -1.2665299945753619e-01  -1.4265894477090391e-01 -6.8000625835455686e-02 -1.2267776071298492e-02  -1.4872088550963944e-01 -5.3293727228691745e-02 -1.2973986422870301e-02  -3.7461460080644916e-02 -1.5371381959525737e-01 -9.7429337881701633e-03  -4.7446712548047117e-02 -1.5029072052283524e-01 -1.6946011372255477e-02  -4.9160526150809895e-02 -3.8286236588652225e-02 -1.4574985557812026e-01  -7.1061460253919448e-02 -2.8084329320930863e-02 -1.3888369111806032e-01  -8.3476526821381680e-02 -1.6766088772496270e-02 -1.3370573568057964e-01  -6.6587361555243099e-02 -1.4299290389831907e-02 -1.4314097352566416e-01  -1.2084582640768386e-01 -9.2626727245607512e-02 -4.4071065359277233e-02  -1.2362525154137129e-01 -9.4621598090353948e-02 -2.9834888241232708e-02  -1.1515642498454169e-01 -1.0310212004907333e-01 -3.5144770933084733e-02  -1.2964196373937090e-01 -8.3963043259622949e-02 -3.5624202486538512e-02  -1.3165061906745417e-02 -3.0472820574203505e-02 -1.5499932737138508e-01  -1.4914426091344996e-02 -1.2095164200335632e-02 -1.5734967991522350e-01  -2.7902562838534213e-02 -1.8977671155337626e-02 -1.5488197237912044e-01  -8.8383113859533610e-02 -5.7666727607630051e-02 -1.1827239507906086e-01  -7.0625568484450757e-02 -6.2011583117397275e-02 -1.2763697781484754e-01  -1.2776045857892501e-01 -7.8072088844628712e-02 -5.2031641205641639e-02  -1.1644833383430757e-01 -8.9153948660485829e-02 -6.0136651013391065e-02  -1.0184337782416411e-01 -4.6036389883134313e-02 -1.1240377981138629e-01  -1.1143526788830657e-01 -4.8552164474294536e-02 -1.0173879857782302e-01  -1.0049693352270733e-01 -5.9757307803924589e-02 -1.0702859952807013e-01  -5.7878474540849448e-02 -2.6241527435352050e-02 -1.4521746516404874e-01  -9.4514634946531298e-02 -8.5930673716965944e-02 -9.3851954900755902e-02  -8.6954533843508222e-02 -8.0618680148267424e-02 -1.0519193227045386e-01  -9.3845736488592874e-02 -1.0247366378563809e-01 -7.6273398857780145e-02  -2.9778138373464953e-02 -3.5503594694720059e-02 -1.5158736986604063e-01  -1.6237731093411017e-02 -4.9027718632953340e-02 -1.4986147265634586e-01  -3.7003824813586141e-02 -1.0287911751274467e-02 -1.5379557849149861e-01  -7.7466304234860714e-02 -1.3750876357942798e-01 -1.4718387290500706e-02  -9.1030969331091061e-02 -1.2909088306545216e-01 -1.3252601058964721e-02  -1.4768853619339625e-01 -1.3304626407052747e-02 -5.6015217154476861e-02  -1.5077207941243370e-01 -2.5219994034676584e-02 -4.1926010942710597e-02  -8.6464328381597330e-02 -1.1278859619977417e-01 -7.0199862470937499e-02  -1.4386908409196883e-01 -6.1312504294035085e-02 -2.5856542855931471e-02  -1.4116126978117549e-01 -2.0281931004216516e-02 -6.9206580368655596e-02  -1.4419606981643715e-01 -3.0983883365887574e-02 -5.8084052218506911e-02  -7.7818395780387919e-02 -7.3524516018642641e-02 -1.1689098249747780e-01  -7.6404831193752021e-02 -8.5580787153435908e-02 -1.0937524490573332e-01  -6.6281843537427429e-02 -8.2005184026548480e-02 -1.1834841449580072e-01  -1.1645166513320816e-01 -1.5081437539119695e-02 -1.0648075668703604e-01  -1.2805027155317236e-01 -1.5398096113309981e-02 -9.2159009332190941e-02  -4.1235767683684227e-02 -2.3402531892937155e-02 -1.5125738177589013e-01  -5.1744934522231348e-02 -1.2130204203617857e-02 -1.4934255073523348e-01  -7.2757862598616663e-02 -1.1767480220574833e-01 -7.7354267340130844e-02  -9.7104441124477442e-02 -1.0882830401229555e-01 -6.2070031551759053e-02  -1.0595689756621562e-01 -9.6565585655096986e-02 -6.7628567739631704e-02  -1.1060497869011131e-01 -8.5949738283222790e-02 -7.4195072854253405e-02  -1.1966685087435305e-01 -7.6781315101316430e-02 -7.0069665005389817e-02  -1.2224396492947065e-02 -1.0911660060855867e-01 -1.1432621395694842e-01  -1.6282156295688206e-02 -1.1918039496962822e-01 -1.0323146278468356e-01  -1.5257550192786934e-01 -3.3160970066172274e-02 -2.7337825017702658e-02  -1.5575552298981582e-01 -2.6016150248730066e-02 -1.3794796634362415e-02  -1.5293995469100133e-01 -3.9505323868571647e-02 -1.3243172314005531e-02  -1.5493322142288193e-01 -1.7943946495540920e-02 -2.8293064658011718e-02  -1.2106218362495880e-01 -4.9544906080926543e-02 -8.9527308230326508e-02  -1.1082531267769995e-01 -6.2101428063903827e-02 -9.4798307147330257e-02  -1.4760295192663231e-01 -4.0359543956586356e-02 -4.1358185236622276e-02  -1.1081786260127678e-02 -1.2821053252564354e-01 -9.2551003426439057e-02  -2.7503400711791443e-02 -1.2782021959474163e-01 -8.9615103710515814e-02  -5.3801497539871922e-02 -8.9081377696911643e-02 -1.1955709681678472e-01  -1.0838918754936155e-01 -7.6801295626311300e-02 -8.6480732132517057e-02  -9.8594676754633917e-02 -7.2831905801240077e-02 -1.0049956936114801e-01  -1.8011862715067477e-02 -1.3637061364159156e-01 -7.8765166030791048e-02  -3.5335412079140829e-02 -1.3478482087019078e-01 -7.5560921913495713e-02  -2.6700439568736682e-02 -1.4242663110867804e-01 -6.4238853225576431e-02  -1.0110654782276536e-01 -9.1048712068489759e-02 -8.1321971999014253e-02  -9.0470371970865535e-02 -6.9623874128255062e-02 -1.0996934103413514e-01  -1.4890896249339766e-01 -4.7166165529513783e-02 -2.6974147325694982e-02  -1.9020585236950126e-02 -1.4919446548157991e-01 -5.0039939008329481e-02  -3.5421440782869310e-02 -1.4644644122854139e-01 -4.9228833074780848e-02  -2.8437193674900434e-02 -1.5174788957894000e-01 -3.5896365453652157e-02  -4.6750009237283154e-02 -1.4756878577489319e-01 -3.4092058120826829e-02  -4.1923698244730620e-02 -1.2618348544718608e-01 -8.6287443050851481e-02  -3.4529408114797655e-02 -1.1868092258294119e-01 -9.9235734477905083e-02  -1.3699298917557817e-01 -7.5409850771713277e-02 -2.5924125485471374e-02  -1.3683364525736486e-01 -7.0192356428084468e-02 -3.8413992594463209e-02  -1.3419582803055768e-01 -2.4016575250361421e-02 -8.0886193234183043e-02  -1.3695105945481884e-01 -3.3857342057661236e-02 -7.2284962968828165e-02  -1.2816062657514449e-01 -3.4151697252150039e-02 -8.6805944663596868e-02  -1.3090804772158318e-01 -4.9521429564465008e-02 -7.4412758554742067e-02  -1.2945430438254490e-01 -8.8984129181580399e-02 -2.1217178504386768e-02  -1.3527979042913324e-01 -8.1771989934631140e-02 -1.1800102572838009e-02  -1.2844741232091017e-01 -9.2377086833517155e-02 -9.7498938794232329e-03  -6.6095388166345179e-02 -9.4887039085633632e-02 -1.0840498875678048e-01  -1.4345880294615448e-01 -5.4832372028182558e-02 -3.9233105169097802e-02  -1.2083864258243911e-01 -1.0078003048492035e-01 -1.9193736484624000e-02  -5.6888604322023952e-02 -1.4757050227487895e-01 -1.0616022644955881e-02  -1.3568596916666156e-01 -6.4965223113606696e-02 -4.9953655914967324e-02  -4.1172213182112297e-02 -9.6203601336980318e-02 -1.1905607580141879e-01  -2.6197422839761984e-02 -9.0087259772725692e-02 -1.2776476995017985e-01  -3.0431578968179083e-02 -1.0107627849899295e-01 -1.1825115010020064e-01  -4.1180405659416601e-02 -1.0934985194821346e-01 -1.0710528213346378e-01  -2.5833260864781007e-02 -1.1007523326630912e-01 -1.1109288876625165e-01  -1.1256663972506908e-01 -3.2701779469573262e-02 -1.0670138274583531e-01  -1.0741368552892099e-01 -2.1713562076813350e-02 -1.1453257101881244e-01  -1.4144278489902554e-01 -4.8697255711982565e-02 -5.2436367250246974e-02  -9.7345756696463628e-02 -1.5494430266815533e-02 -1.2414091607130913e-01  -1.0077222399986832e-01 -3.1408773696962780e-02 -1.1825772784059552e-01  -1.0577007681477846e-01 -9.7670394658671070e-03 -1.1766544582680399e-01  -1.3828298857782081e-01 -4.3191009947338814e-02 -6.4336553804135013e-02  -1.3565862928742886e-01 -5.5503647021860655e-02 -6.0359433369684329e-02  -8.3120577742710047e-02 -1.3243143280461653e-01 -2.6057867846131382e-02  -8.9188186515213957e-02 -1.2566178664196553e-01 -3.7155851891338146e-02  -9.5037472723379604e-02 -1.2428962878173848e-01 -2.5422338094761777e-02  -7.8607192278563887e-02 -1.3092930137525888e-01 -4.2472564022776334e-02  -7.7585959399176327e-02 -1.218781