<?xml version="1.0"?>
<VTKFile type="UnstructuredGrid"  version="0.1"  >
<UnstructuredGrid>
<Piece  NumberOfPoints="597" NumberOfCells="2124">
<Points>
<DataArray  type="Float64"  NumberOfComponents="3"  format="ascii">0 0 0  1 0 0  0 1 0  0 0 1  0.09999999999981467 0 0  0.1999999999995579 0 0  0.2999999999992664 0 0  0.3999999999989749 0 0  0.4999999999986943 0 0  0.5999999999989468 0 0  0.69999999999921 0 0  0.7999999999994734 0 0  0.8999999999997368 0 0  0 0.09999999999981467 0  0 0.1999999999995579 0  0 0.2999999999992664 0  0 0.3999999999989749 0  0 0.4999999999986943 0  0 0.5999999999989468 0  0 0.69999999999921 0  0 0.7999999999994734 0  0 0.8999999999997368 0  0 0 0.09999999999981467  0 0 0.1999999999995579  0 0 0.2999999999992664  0 0 0.3999999999989749  0 0 0.4999999999986943  0 0 0.5999999999989468  0 0 0.69999999999921  0 0 0.7999999999994734  0 0 0.8999999999997368  0.9951847266502585 0.09801714055230534 0  0.9807852803038259 0.1950903225158687 0  0.9569403355024331 0.2902846780119318 0  0.9238795320817892 0.3826834334019886 0  0.8819212636904032 0.4713967380569389 0  0.8314696113679687 0.5555702344182949 0  0.7730104520841969 0.6343932857215511 0  0.7071067795733449 0.7071067827997501 0  0.634393282646958 0.7730104546074502 0  0.5555702316245595 0.8314696132346829 0  0.471396735522105 0.8819212650453002 0  0.3826834312318057 0.9238795329807084 0  0.2902846763682919 0.9569403360010258 0  0.1950903214145686 0.980785280522888 0  0.0980171400302339 0.995184726701678 0  0.9951847266502585 0 0.09801714055230534  0.9807852803038259 0 0.1950903225158687  0.9569403355024331 0 0.2902846780119318  0.9238795320817892 0 0.3826834334019886  0.8819212636904032 0 0.4713967380569389  0.8314696113679687 0 0.5555702344182949  0.7730104520841969 0 0.6343932857215511  0.7071067795733449 0 0.7071067827997501  0.634393282646958 0 0.7730104546074502  0.5555702316245595 0 0.8314696132346829  0.471396735522105 0 0.8819212650453002  0.3826834312318057 0 0.9238795329807084  0.2902846763682919 0 0.9569403360010258  0.1950903214145686 0 0.980785280522888  0.0980171400302339 0 0.995184726701678  0 0.9951847266502585 0.09801714055230534  0 0.9807852803038259 0.1950903225158687  0 0.9569403355024331 0.2902846780119318  0 0.9238795320817892 0.3826834334019886  0 0.8819212636904032 0.4713967380569389  0 0.8314696113679687 0.5555702344182949  0 0.7730104520841969 0.6343932857215511  0 0.7071067795733449 0.7071067827997501  0 0.634393282646958 0.7730104546074502  0 0.5555702316245595 0.8314696132346829  0 0.471396735522105 0.8819212650453002  0 0.3826834312318057 0.9238795329807084  0 0.2902846763682919 0.9569403360010258  0 0.1950903214145686 0.980785280522888  0 0.0980171400302339 0.995184726701678  0.09240154966779951 0 0.3658235692199516  0.07916357488785433 0 0.4469199030523527  0.1536813483092524 0 0.4301465381022301  0.2555379022644893 0 0.09556049568595243  0.1864593291765566 0 0.2034979771761179  0.301651764011142 0 0.1939053326038485  0.1881720785854029 0 0.3302588474155368  0.08403438330774521 0 0.6437268466185475  0.09138388892861184 0 0.5324072873297468  0.1930859140709486 0 0.7878139522981464  0.2165176696171426 0 0.900824597607195  0.292033522918994 0 0.8485491372975176  0.8037370491763215 0 0.0819245024222376  0.13014171782822 0 0.8868491929551598  0.08390174260734276 0 0.8253161934654943  0.0912526277304111 0 0.7448765232291942  0.8893622411880446 0 0.270275215225845  0.8593018882538136 0 0.1801969264281539  0.8024703672696746 0 0.2475353432181931  0.3476914857890963 0 0.4125368919261175  0.2997235777995208 0 0.3096876237048341  0.2490386282757974 0 0.412527605219857  0.4554126154120848 0 0.2518749964366375  0.39715257119151 0 0.3258159451822259  0.4883877361055989 0 0.3266984434363212  0.08966539318254355 0 0.2701713986717769  0.08377502767602918 0 0.164580120521203  0.3869558528229924 0 0.8037364723405749  0.1791913905804899 0 0.6945879747883159  0.1628348997531483 0 0.5951991143072877  0.2434219731662663 0 0.6106761106298939  0.3204481765543245 0 0.6201302437713152  0.2846206283417919 0 0.7159219267704837  0.3832252637688779 0 0.6893291551637116  0.1561812521325313 0 0.09527745928338882  0.8122499659106144 0 0.3273472587872134  0.2026260329838435 0 0.5147603927306801  0.3051207491780334 0 0.5196560474248884  0.5886190882535927 0 0.5879547877726188  0.5628286668856228 0 0.4841066442899339  0.4793970684942127 0 0.5419440173923771  0.4015076433379883 0 0.1595345792024606  0.4550663848726773 0 0.08400234057127416  0.3574412370957718 0 0.08514557536940835  0.4777735346904641 0 0.6420237002140541  0.5886050303809575 0 0.712791733722679  0.7032448955145116 0 0.5547060123784804  0.3710082806848816 0 0.2384994559961529  0.6343947712920404 0 0.1960314230465952  0.7205780420889929 0 0.2811987241304542  0.745939430962431 0 0.1834190974026157  0.6797060130425652 0 0.1027709852058109  0.5617353506566283 0 0.09368054426051139  0.5099863318045709 0 0.1736146479983669  0.767516113391133 0 0.4796577434100839  0.6547738563668709 0 0.4463662193850245  0.4595209371514753 0 0.4253249285837939  0.3873123962753185 0 0.4899626124422253  0.3876250349852705 0 0.5839247669697213  0.07755778095112512 0 0.07322480571131515  0.6662618639536104 0 0.6404224526940073  0.6281317226641706 0 0.5172795154653362  0.5467991787548994 0 0.2775110285514451  0.6382784164401777 0 0.32558335190295  0.7209625386664502 0 0.3760300013763025  0.4777689774710401 0 0.7650512433185178  0.8150026845526732 0 0.4083495007681245  0.5566757769165783 0 0.3852531587967231  0.08307535298787436 0 0.9466352209487393  0.9264479164039098 0 0.09196696687313166  0.2397696045481275 0 0.2516617606603849  0.08142379610690136 0.4255946222877561 0.9012432429190713  0.09186671735860186 0.5103340042487068 0.8550553843753256  0.9658493887414453 0.07517233868428744 0.2479598309495128  0.2588669386047153 0.4173196613385269 0.8711097567802347  0.349931687668115 0.4640670731596268 0.8137503091088829  0.2521091443082024 0.5198490772623717 0.8162094806026494  0.3381706165708041 0.3470207631890471 0.8747669541105296  0.4127313919422814 0.6915412096022421 0.5928098797483512  0.505094034203222 0.6002477622197614 0.6201472732847281  0.5053541985510116 0.6749299798537994 0.5376677936248502  0.5711974176563547 0.6081084457949028 0.5513053856218164  0.2265606352222516 0.3190644824037021 0.9202543858282597  0.1657801920411619 0.4763492767397394 0.8634861287110075  0.1656568208377873 0.3895779149708851 0.9059728836322062  0.501344556404584 0.2277556352228774 0.8347340932223356  0.4415367071350051 0.3068779784495727 0.8431318061816198  0.4059460944519277 0.2465220798785426 0.8800196773547647  0.6196876017566089 0.7450935593761555 0.2466229186537899  0.627698728320387 0.714123017011242 0.3098751733194038  0.6711018023358704 0.69515091935471 0.2576578549585624  0.5155953815884997 0.3094099022200982 0.7990162169147497  0.899989132227882 0.4289906012996104 0.07737328911389559  0.9382293875188548 0.3361973257557999 0.08183504475860598  0.2363183186651487 0.9697312279355392 0.06144101097726593  0.2993323950146074 0.9481462475789452 0.106858834434898  0.3101615066201264 0.2414838162804179 0.9195028038487859  0.4482922838801319 0.1771577048152243 0.8761559084079369  0.5266326972169642 0.1057746683003005 0.8434866458741044  0.4200451415729211 0.09020206018716082 0.9030092288448531  0.7623891105001969 0.5843698709159578 0.2779832695620105  0.7799115838824263 0.596929282445646 0.1881843592994147  0.7264879983305693 0.6504346235700518 0.2216979673856474  0.8178732076005444 0.5297083005156807 0.2247054353013872  0.08303734348179403 0.1922053315992417 0.9778353184930026  0.09408269694107538 0.07627092328721888 0.9926385003601306  0.1760515877647063 0.1196852712822077 0.9770779264130525  0.5576143975194612 0.3637809431371279 0.7461431558952143  0.4455986119305068 0.3912097319557027 0.8052309126385754  0.8060332204752099 0.4925189261569118 0.3282309474556054  0.7346451337886817 0.5624574787189985 0.379391765901261  0.642508165502269 0.2904084282097414 0.7091164940174894  0.7030254185009037 0.306273768786429 0.6418345888895255  0.6340141384684502 0.3769833468372913 0.6752108029567235  0.365152486570974 0.1655128603952953 0.9161163433728284  0.5962792236506059 0.542109883053058 0.5920877993497508  0.5485896415631504 0.5085733599282969 0.6636283167111371  0.5920678220815722 0.6464708649476155 0.4811768020483384  0.1878625042731283 0.2239323962641036 0.9563273296270713  0.1024217313722561 0.3092935774102874 0.9454349644028699  0.2334505071908325 0.06487815783086033 0.9702018786463037  0.4887206245964966 0.8674866792832123 0.09283863613924619  0.5742874233407752 0.8143734795796027 0.08360497084518105  0.9317006522490203 0.08389294215323394 0.3534060962343804  0.951181716421189 0.1590863374964037 0.2644709427669156  0.5455072387620422 0.7115493400103802 0.4428536882413925  0.9076276342048921 0.3867895805147213 0.1631131448807132  0.8905082493452895 0.127913990281725 0.4366154703376809  0.9096700297655037 0.1954608695184058 0.3664634844476816  0.4909557921631998 0.4638599224188366 0.7374255098075979  0.4820557633059458 0.5398846258057163 0.6900339353119844  0.4181956098394346 0.5173376920524271 0.7466419116905315  0.7346402167242096 0.09513558808181954 0.67175365414096  0.8078263850243458 0.09713596463829366 0.5813614504181416  0.2601336813274003 0.1475738587985683 0.954228706358363  0.3264256065230105 0.07648882390671821 0.9421230191559125  0.4590556119879899 0.7423895417623142 0.4879812633537003  0.6126112913498895 0.686574629053208 0.3915644065170771  0.6684671903139626 0.6091898762120843 0.4266606499250449  0.6977699223891808 0.542245960309553 0.4680667195357594  0.7549550374165268 0.4843931863016896 0.4420476586793638  0.07712060794257616 0.6883652307079324 0.7212528828247291  0.1027005936763692 0.7518617879958691 0.6512729380299598  0.9625479306552708 0.2091983633587219 0.1724457188778192  0.9825939555666527 0.1641265719497667 0.08701486576382911  0.964839163020035 0.2492141217550538 0.08353269432177644  0.97740960683
[...]
<PointData  Vectors="Solid displacement [m]"> 
<DataArray  type="Float64"  Name="Solid displacement [m]"  NumberOfComponents="3" format="ascii">0.0000000000000000e+00 0.0000000000000000e+00 0.0000000000000000e+00  -1.5963838621661852e-01 0.0000000000000000e+00 0.0000000000000000e+00  0.0000000000000000e+00 -1.5963795916846843e-01 0.0000000000000000e+00  0.0000000000000000e+00 0.0000000000000000e+00 -1.5963994035846493e-01  -1.5177191219819050e-02 0.0000000000000000e+00 0.0000000000000000e+00  -3.0422512692613850e-02 0.0000000000000000e+00 0.0000000000000000e+00  -4.5783193541045611e-02 0.0000000000000000e+00 0.0000000000000000e+00  -6.1313693481268479e-02 0.0000000000000000e+00 0.0000000000000000e+00  -7.7061430329724762e-02 0.0000000000000000e+00 0.0000000000000000e+00  -9.3052884937186636e-02 0.0000000000000000e+00 0.0000000000000000e+00  -1.0930869968468382e-01 0.0000000000000000e+00 0.0000000000000000e+00  -1.2583254456926826e-01 0.0000000000000000e+00 0.0000000000000000e+00  -1.4261603145910445e-01 0.0000000000000000e+00 0.0000000000000000e+00  0.0000000000000000e+00 -1.5177950259814088e-02 0.0000000000000000e+00  0.0000000000000000e+00 -3.0418372598999190e-02 0.0000000000000000e+00  0.0000000000000000e+00 -4.5778539567219369e-02 0.0000000000000000e+00  0.0000000000000000e+00 -6.1312642436935169e-02 0.0000000000000000e+00  0.0000000000000000e+00 -7.7060130280399541e-02 0.0000000000000000e+00  0.0000000000000000e+00 -9.3052164617478117e-02 0.0000000000000000e+00  0.0000000000000000e+00 -1.0930775001865739e-01 0.0000000000000000e+00  0.0000000000000000e+00 -1.2583321065169278e-01 0.0000000000000000e+00  0.0000000000000000e+00 -1.4261840149795504e-01 0.0000000000000000e+00  0.0000000000000000e+00 0.0000000000000000e+00 -1.5177518523119471e-02  0.0000000000000000e+00 0.0000000000000000e+00 -3.0421275690978501e-02  0.0000000000000000e+00 0.0000000000000000e+00 -4.5780527066539803e-02  0.0000000000000000e+00 0.0000000000000000e+00 -6.1311830149571457e-02  0.0000000000000000e+00 0.0000000000000000e+00 -7.7060243709688253e-02  0.0000000000000000e+00 0.0000000000000000e+00 -9.3051939925751198e-02  0.0000000000000000e+00 0.0000000000000000e+00 -1.0930636693872753e-01  0.0000000000000000e+00 0.0000000000000000e+00 -1.2583168880207404e-01  0.0000000000000000e+00 0.0000000000000000e+00 -1.4261819884416999e-01  -1.5887010854931397e-01 -1.5648783765663810e-02 0.0000000000000000e+00  -1.5657114728667820e-01 -3.1144862007766467e-02 0.0000000000000000e+00  -1.5276365595589095e-01 -4.6341767120732069e-02 0.0000000000000000e+00  -1.4748500725480646e-01 -6.1091129754548154e-02 0.0000000000000000e+00  -1.4078732353265003e-01 -7.5251841196548139e-02 0.0000000000000000e+00  -1.3273522880279440e-01 -8.8688935783412332e-02 0.0000000000000000e+00  -1.2339974753729127e-01 -1.0127638319223196e-01 0.0000000000000000e+00  -1.1288002436201033e-01 -1.1288381401343793e-01 0.0000000000000000e+00  -1.0126968638507255e-01 -1.2340484104791638e-01 0.0000000000000000e+00  -8.8685797195668714e-02 -1.3273600705469013e-01 0.0000000000000000e+00  -7.5254271802913733e-02 -1.4078568733892358e-01 0.0000000000000000e+00  -6.1087037786670101e-02 -1.4748560096661401e-01 0.0000000000000000e+00  -4.6341001325612204e-02 -1.5276040066334698e-01 0.0000000000000000e+00  -3.1143919149457119e-02 -1.5656949472489740e-01 0.0000000000000000e+00  -1.5649871212788297e-02 -1.5887018230447214e-01 0.0000000000000000e+00  -1.5887074281567679e-01 0.0000000000000000e+00 -1.5648523930305282e-02  -1.5657223138364032e-01 0.0000000000000000e+00 -3.1140879875941670e-02  -1.5276398375933734e-01 0.0000000000000000e+00 -4.6342663266117613e-02  -1.4748993479149408e-01 0.0000000000000000e+00 -6.1086450323503017e-02  -1.4079025994252814e-01 0.0000000000000000e+00 -7.5256574897029943e-02  -1.3273319230221570e-01 0.0000000000000000e+00 -8.8696547860251496e-02  -1.2340078898297455e-01 0.0000000000000000e+00 -1.0127394051996297e-01  -1.1288498294137393e-01 0.0000000000000000e+00 -1.1287884573256088e-01  -1.0126952381690957e-01 0.0000000000000000e+00 -1.2340787934995177e-01  -8.8687325464302164e-02 0.0000000000000000e+00 -1.3273440551874319e-01  -7.5255582471871835e-02 0.0000000000000000e+00 -1.4078616138307157e-01  -6.1094649738072999e-02 0.0000000000000000e+00 -1.4748746308224400e-01  -4.6341272982869934e-02 0.0000000000000000e+00 -1.5276736650667894e-01  -3.1136963848127096e-02 0.0000000000000000e+00 -1.5657345916400164e-01  -1.5648644392269154e-02 0.0000000000000000e+00 -1.5887264149675948e-01  0.0000000000000000e+00 -1.5886838022421670e-01 -1.5655819695472518e-02  0.0000000000000000e+00 -1.5656743867240480e-01 -3.1145406861961000e-02  0.0000000000000000e+00 -1.5275760561243970e-01 -4.6346645223410796e-02  0.0000000000000000e+00 -1.4748384783444404e-01 -6.1088220708494553e-02  0.0000000000000000e+00 -1.4078477412530657e-01 -7.5251937775535294e-02  0.0000000000000000e+00 -1.3273656837344028e-01 -8.8682142351406923e-02  0.0000000000000000e+00 -1.2339939971769756e-01 -1.0127389013544802e-01  0.0000000000000000e+00 -1.1288301307826804e-01 -1.1287599657181653e-01  0.0000000000000000e+00 -1.0127314793473959e-01 -1.2339873437264207e-01  0.0000000000000000e+00 -8.8687027085841211e-02 -1.3273359105933402e-01  0.0000000000000000e+00 -7.5252440043899665e-02 -1.4078614216702537e-01  0.0000000000000000e+00 -6.1087424253327006e-02 -1.4748591856492685e-01  0.0000000000000000e+00 -4.6340994952559091e-02 -1.5276258634895101e-01  0.0000000000000000e+00 -3.1148071146643030e-02 -1.5657110364613966e-01  0.0000000000000000e+00 -1.5653527686365548e-02 -1.5887132005345864e-01  -1.4148709395825071e-02 0.0000000000000000e+00 -5.6012345773652342e-02  -1.2171114532819998e-02 0.0000000000000000e+00 -6.8698647076276056e-02  -2.3627217487556990e-02 0.0000000000000000e+00 -6.6131572601710459e-02  -3.8958990344713569e-02 0.0000000000000000e+00 -1.4567803812853925e-02  -2.8430151527689178e-02 0.0000000000000000e+00 -3.1026822588279671e-02  -4.6148410754663062e-02 0.0000000000000000e+00 -2.9663480568075509e-02  -2.8815659721777978e-02 0.0000000000000000e+00 -5.0574905267869084e-02  -1.3076793124831390e-02 0.0000000000000000e+00 -1.0016414485165184e-01  -1.4119852790873074e-02 0.0000000000000000e+00 -8.2253417973924686e-02  -3.0396481867302653e-02 0.0000000000000000e+00 -1.2401763871386687e-01  -3.4377867073484704e-02 0.0000000000000000e+00 -1.4303024050154578e-01  -4.6267633062285228e-02 0.0000000000000000e+00 -1.3443906434543418e-01  -1.2649414908689344e-01 0.0000000000000000e+00 -1.2892776039488430e-02  -2.0618002527077382e-02 0.0000000000000000e+00 -1.4049535984536479e-01  -1.3226884378532897e-02 0.0000000000000000e+00 -1.3009818447337396e-01  -1.4302161777292951e-02 0.0000000000000000e+00 -1.1673596052637270e-01  -1.4124048770358308e-01 0.0000000000000000e+00 -4.2923097979879657e-02  -1.3594441270366733e-01 0.0000000000000000e+00 -2.8508089144025976e-02  -1.2659298872900615e-01 0.0000000000000000e+00 -3.9050467111148748e-02  -5.3716097200836310e-02 0.0000000000000000e+00 -6.3731243138548374e-02  -4.6018043189963706e-02 0.0000000000000000e+00 -4.7546007809011866e-02  -3.8342540541154706e-02 0.0000000000000000e+00 -6.3511922623677802e-02  -7.0274457902452833e-02 0.0000000000000000e+00 -3.8868439986306146e-02  -6.1260400572666476e-02 0.0000000000000000e+00 -5.0256968608341980e-02  -7.5681462609163211e-02 0.0000000000000000e+00 -5.0626351297774756e-02  -1.3674474978378341e-02 0.0000000000000000e+00 -4.1206154981386620e-02  -1.2737322203915354e-02 0.0000000000000000e+00 -2.5023172313621181e-02  -6.1281891554287371e-02 0.0000000000000000e+00 -1.2728611809954390e-01  -2.8015480535203894e-02 0.0000000000000000e+00 -1.0859637387470149e-01  -2.5281890372900424e-02 0.0000000000000000e+00 -9.2411186239186871e-02  -3.7898348779440344e-02 0.0000000000000000e+00 -9.5074883979927374e-02  -5.0032011466175835e-02 0.0000000000000000e+00 -9.6822243125028393e-02  -4.4671092585608106e-02 0.0000000000000000e+00 -1.1236302336521227e-01  -6.0226983197032173e-02 0.0000000000000000e+00 -1.0833422185428254e-01  -2.3745491345217987e-02 0.0000000000000000e+00 -1.4485713576343155e-02  -1.2847918564319408e-01 0.0000000000000000e+00 -5.1779835826298498e-02  -3.1329503464305873e-02 0.0000000000000000e+00 -7.9591509883511061e-02  -4.7328980102117287e-02 0.0000000000000000e+00 -8.0604512056723587e-02  -9.2802660761528183e-02 0.0000000000000000e+00 -9.2698495099520356e-02  -8.8154678005338008e-02 0.0000000000000000e+00 -7.5824989040939511e-02  -7.4986098352729472e-02 0.0000000000000000e+00 -8.4767863911191066e-02  -6.1645639974328897e-02 0.0000000000000000e+00 -2.4493237957464799e-02  -6.9985804523776632e-02 0.0000000000000000e+00 -1.2918750249130671e-02  -5.4705037292915058e-02 0.0000000000000000e+00 -1.3030591324279814e-02  -7.5150538645451764e-02 0.0000000000000000e+00 -1.0098524174836272e-01  -9.3441585295768542e-02 0.0000000000000000e+00 -1.1315702806129675e-01  -1.1140082751750360e-01 0.0000000000000000e+00 -8.7872816615495827e-02  -5.6990874837808708e-02 0.0000000000000000e+00 -3.6636954707376518e-02  -9.8814434569489629e-02 0.0000000000000000e+00 -3.0534818260981138e-02  -1.1311923672514893e-01 0.0000000000000000e+00 -4.4145932609472492e-02  -1.1705540076916765e-01 0.0000000000000000e+00 -2.8782921526117732e-02  -1.0604558216624477e-01 0.0000000000000000e+00 -1.6033533474263589e-02  -8.6946226561326806e-02 0.0000000000000000e+00 -1.4499338351446947e-02  -7.8784279702790116e-02 0.0000000000000000e+00 -2.6819884265320119e-02  -1.2166935230444549e-01 0.0000000000000000e+00 -7.6036819767279801e-02  -1.0293215384517106e-01 0.0000000000000000e+00 -7.0169380403337964e-02  -7.1390161607676708e-02 0.0000000000000000e+00 -6.6077916107887769e-02  -6.0167082443753406e-02 0.0000000000000000e+00 -7.6108994095234916e-02  -6.0533769881177521e-02 0.0000000000000000e+00 -9.1186819756930035e-02  -1.1773870805322488e-02 0.0000000000000000e+00 -1.1115383115370645e-02  -1.0576665036041255e-01 0.0000000000000000e+00 -1.0166575908270578e-01  -9.8897974135328692e-02 0.0000000000000000e+00 -8.1445166902912577e-02  -8.4876560006776139e-02 0.0000000000000000e+00 -4.3078072087866022e-02  -9.9787527865447090e-02 0.0000000000000000e+00 -5.0902134339860620e-02  -1.1351059265614619e-01 0.0000000000000000e+00 -5.9204060592108324e-02  -7.5717873246516174e-02 0.0000000000000000e+00 -1.2124902939977937e-01  -1.2926031786563549e-01 0.0000000000000000e+00 -6.4764526582317281e-02  -8.6786317014339504e-02 0.0000000000000000e+00 -6.0062023964972990e-02  -1.3214508967324195e-02 0.0000000000000000e+00 -1.5057094389456815e-01  -1.4714704610846333e-01 0.0000000000000000e+00 -1.4606860426463310e-02  -3.6664443470513473e-02 0.0000000000000000e+00 -3.8480685200952436e-02  -1.3000098039301173e-02 -6.7937844148356366e-02 -1.4387223069556387e-01  -1.4666343537562024e-02 -8.1467032805748046e-02 -1.3649794530623893e-01  -1.5418681035884693e-01 -1.2002542668226236e-02 -3.9585799092114175e-02  -4.1327266961370804e-02 -6.6618766195564241e-02 -1.3905389649309427e-01  -5.5855574512351146e-02 -7.4076686440640221e-02 -1.2990158098007554e-01  -4.0248999720570583e-02 -8.2982188492752379e-02 -1.3029294842402728e-01  -5.3982135858883132e-02 -5.5400736798389298e-02 -1.3963822882006235e-01  -6.5884262749855468e-02 -1.1038931332648629e-01 -9.4631481384205032e-02  -8.0622867884517155e-02 -9.5823165435953234e-02 -9.8994886025680739e-02  -8.0665308252511489e-02 -1.0774117103826353e-01 -8.5832393024178305e-02  -9.1176690704914090e-02 -9.7076385659493586e-02 -8.8009830011231541e-02  -3.6168372981713257e-02 -5.0934788953782020e-02 -1.4690236685184324e-01  -2.6469978293997755e-02 -7.6040779581207724e-02 -1.3784131706282637e-01  -2.6447647468835600e-02 -6.2189214718555860e-02 -1.4462465322270882e-01  -8.0031942567265368e-02 -3.6359873003559411e-02 -1.3325348029529585e-01  -7.0478546290254435e-02 -4.8995234304270455e-02 -1.3459239784265967e-01  -6.4799126670319354e-02 -3.9361092315037614e-02 -1.4048219106708221e-01  -9.8922704506045789e-02 -1.1894554365541098e-01 -3.9371181491623164e-02  -1.0020106242259778e-01 -1.1399989865645242e-01 -4.9472697412745500e-02  -1.0713188911544372e-01 -1.1097107811843758e-01 -4.1133004266333574e-02  -8.2303399406561617e-02 -4.9397966862075531e-02 -1.2755105127234781e-01  -1.4367039722358343e-01 -6.8482676400975731e-02 -1.2354291378547912e-02  -1.4977525924831733e-01 -5.3671224330651246e-02 -1.3065658197161538e-02  -3.7726741777661277e-02 -1.5480365832333445e-01 -9.8114599906793058e-03  -4.7783255742471699e-02 -1.5135652341013653e-01 -1.7065053363866736e-02  -4.9509619652265309e-02 -3.8556503253747494e-02 -1.4678355067468074e-01  -7.1565025485292408e-02 -2.8283053420599873e-02 -1.3986800559180426e-01  -8.4068523251552368e-02 -1.6885026588345012e-02 -1.3465326348919607e-01  -6.7058711997066492e-02 -1.4400500358979810e-02 -1.4415536859938674e-01  -1.2170289557927715e-01 -9.3283862927716538e-02 -4.4382451972146596e-02  -1.2450175032559652e-01 -9.5292289027320898e-02 -3.0045628567796821e-02  -1.1597295966979396e-01 -1.0383304051581164e-01 -3.5393508775388688e-02  -1.3056121606093204e-01 -8.4558634080834846e-02 -3.5875946692445815e-02  -1.3258016810472614e-02 -3.0688007972401756e-02 -1.5609815714070344e-01  -1.5019995325736460e-02 -1.2180149574740912e-02 -1.5846461388013580e-01  -2.8100929708213068e-02 -1.9111335933215821e-02 -1.5597958049269384e-01  -8.9010531626281530e-02 -5.8075135135268512e-02 -1.1911096839615290e-01  -7.1127332685072306e-02 -6.2451221090418146e-02 -1.2854216736437588e-01  -1.2866705786259880e-01 -7.8625334265185615e-02 -5.2400088368434579e-02  -1.1727418813009981e-01 -8.9786376574769386e-02 -6.0563227221657558e-02  -1.0256570988482777e-01 -4.6362326685825170e-02 -1.1320066722733622e-01  -1.1222572434506080e-01 -4.8895803171323485e-02 -1.0246007035814027e-01  -1.0120972367975234e-01 -6.0180850541466352e-02 -1.0778748055129243e-01  -5.8289201832654881e-02 -2.6426745393517418e-02 -1.4624674881947111e-01  -9.5185133422178395e-02 -8.6539951441782656e-02 -9.4517506737071683e-02  -8.7571537761093235e-02 -8.1189723910615685e-02 -1.0593789033682718e-01  -9.4511685121982159e-02 -1.0320015070490059e-01 -7.6814005107990233e-02  -2.9989309436143124e-02 -3.5754210473546932e-02 -1.5266239817943997e-01  -1.6352468931885682e-02 -4.9375182416131633e-02 -1.5092416396726419e-01  -3.7266307094335038e-02 -1.0360281051215649e-02 -1.5488497057731140e-01  -7.8015783999818317e-02 -1.3848343010223879e-01 -1.4822396719461606e-02  -9.1676431757313923e-02 -1.3000569614946317e-01 -1.3346528613354981e-02  -1.4873522433191311e-01 -1.3397999860037370e-02 -5.6412919408342962e-02  -1.5184127218883967e-01 -2.5398380173381755e-02 -4.2222652549752757e-02  -8.7078088397671255e-02 -1.1358832844182798e-01 -7.0697244026587086e-02  -1.4488921239770958e-01 -6.1746956385647166e-02 -2.6039694528804183e-02  -1.4216136065773538e-01 -2.0424854406364566e-02 -6.9697565543330342e-02  -1.4521804862377172e-01 -3.1203412206023094e-02 -5.8496555852600107e-02  -7.8370695848166694e-02 -7.4046212938226538e-02 -1.1771969588333894e-01  -7.6947515353028878e-02 -8.6187171984454192e-02 -1.1015119494382831e-01  -6.6752813178700174e-02 -8.2586456800602143e-02 -1.1918796482668428e-01  -1.1727695265358719e-01 -1.5188174179136992e-02 -1.0723573029206029e-01  -1.2895812106714860e-01 -1.5507139092462185e-02 -9.2811500497203797e-02  -4.1527915178994998e-02 -2.3566962626211489e-02 -1.5232968513786924e-01  -5.2111432061580830e-02 -1.2215365554802012e-02 -1.5040068822245298e-01  -7.3274858603725901e-02 -1.1850951506857878e-01 -7.7902206543156660e-02  -9.7793157879708631e-02 -1.0960017660942310e-01 -6.2509754103965226e-02  -1.0670857719961242e-01 -9.7249983075390151e-02 -6.8108372413734811e-02  -1.1138914310591191e-01 -8.6559513979241151e-02 -7.4720977523834942e-02  -1.2051564815695698e-01 -7.7325807567099628e-02 -7.0566477295529256e-02  -1.2311087098482356e-02 -1.0988987050633410e-01 -1.1513691725572955e-01  -1.6397177299586004e-02 -1.2002518392441584e-01 -1.0396380782661414e-01  -1.5365722884555580e-01 -3.3396002294130922e-02 -2.7531196139051355e-02  -1.5685943497120172e-01 -2.6200584280233710e-02 -1.3892325063307112e-02  -1.5402408238523660e-01 -3.9785137824446717e-02 -1.3336740195427970e-02  -1.5603137914033469e-01 -1.8070868589168385e-02 -2.8493616530914923e-02  -1.2192070127889279e-01 -4.9895339147676965e-02 -9.0162375767179476e-02  -1.1161126623156213e-01 -6.2541204736907038e-02 -9.5470885665605729e-02  -1.4864949018634796e-01 -4.0645801808625683e-02 -4.1651166491820366e-02  -1.1159688243821162e-02 -1.2911913460234029e-01 -9.3207501671151827e-02  -2.7698540696362756e-02 -1.2872661534793112e-01 -9.0250776327600202e-02  -5.4183265764080397e-02 -8.9713390443836957e-02 -1.2040551831219946e-01  -1.0915766119554708e-01 -7.7346176749666457e-02 -8.7093939239214629e-02  -9.9293705381064468e-02 -7.3348047390512455e-02 -1.0121261858862846e-01  -1.8139688007865067e-02 -1.3733755322517346e-01 -7.9324084141021003e-02  -3.5586114854622181e-02 -1.3574073471164841e-01 -7.6097020481293340e-02  -2.6889758537625489e-02 -1.4343690772823234e-01 -6.4694512937425119e-02  -1.0182373894635981e-01 -9.1694336131026691e-02 -8.1898322599645856e-02  -9.1112405691821816e-02 -7.0117582874924866e-02 -1.1074873953041089e-01  -1.4996476437286876e-01 -4.7500413032860539e-02 -2.7165153939194078e-02  -1.9155472377933032e-02 -1.5025292132454882e-01 -5.0394510134786248e-02  -3.5672444849540935e-02 -1.4748538456143898e-01 -4.9577949114109107e-02  -2.8638549846787473e-02 -1.5282459090372671e-01 -3.6150396604962672e-02  -4.7081919652112045e-02 -1.4861588223400898e-01 -3.4332979128909730e-02  -4.2220590415411804e-02 -1.2707836999637917e-01 -8.6899546786187207e-02  -3.4774271014456570e-02 -1.1952259615795062e-01 -9.9939635455823767e-02  -1.3796437699181580e-01 -7.5944603118755366e-02 -2.6107709633356870e-02  -1.3780402187026547e-01 -7.0689717288399803e-02 -3.8686029430045767e-02  -1.3514680602492068e-01 -2.4186131706548663e-02 -8.1458993241619426e-02  -1.3792189486214390e-01 -3.4096602468010655e-02 -7.2797099522074527e-02  -1.2906930448390852e-01 -3.4392764797577642e-02 -8.7421175499376294e-02  -1.3183657299126209e-01 -4.9871901132703934e-02 -7.4939569447003501e-02  -1.3037172951691756e-01 -8.9615152144176841e-02 -2.1366981241625994e-02  -1.3623851014211252e-01 -8.2352035851481251e-02 -1.1883389316947152e-02  -1.2935783997884173e-01 -9.3031398172446392e-02 -9.8187908091139468e-03  -6.6564870706685500e-02 -9.5559595300235278e-02 -1.0917470284558831e-01  -1.4447591781135671e-01 -5.5220876277176444e-02 -3.9511212399234476e-02  -1.2169536534660012e-01 -1.0149393596691876e-01 -1.9329531107140120e-02  -5.7292566917775796e-02 -1.4861653603777039e-01 -1.0690847478451631e-02  -1.3664809466544325e-01 -6.5425253136557157e-02 -5.0307523758910511e-02  -4.1463479986629664e-02 -9.6886242427987115e-02 -1.1990079076966205e-01  -2.6382323787078672e-02 -9.0726407364880426e-02 -1.2867058028023243e-01  -3.0646541065899448e-02 -1.0179291812890061e-01 -1.1908985763506620e-01  -4.1472014413345380e-02 -1.1012576631931797e-01 -1.0786500372132765e-01  -2.6015839755157134e-02 -1.1085553641703605e-01 -1.1188110224531375e-01  -1.1336514255898333e-01 -3.2933060714945048e-02 -1.0745776690947878e-01  -1.0817497643897582e-01 -2.1866883167310038e-02 -1.1534443343355533e-01  -1.4244511991024011e-01 -4.9042408874671192e-02 -5.2808138248439149e-02  -9.8036306797731620e-02 -1.5604202424874553e-02 -1.2502008510302284e-01  -1.0148664804185457e-01 -3.1630688360829960e-02 -1.1909616707150526e-01  -1.0651942226575149e-01 -9.8359365407252059e-03 -1.1849909712439460e-01  -1.3926308959202924e-01 -4.3497084245845821e-02 -6.4792572796787282e-02  -1.3662037749143013e-01 -5.5896398208701903e-02 -6.0786853962213241e-02  -8.3710253560793396e-02 -1.3337017092732623e-01 -2.6242169836237474e-02  -8.9821065114582890e-02 -1.2655252862890820e-01 -3.7418732591087016e-02  -9.5711249326200218e-02 -1.2517075891453772e-01 -2.5602206103530433e-02  -7.9165100344289044e-02 -1.3185766822795719e-01 -4.2773244468808903e-02  -7.8136642639206930e-02 -1.227426