<?xml version="1.0"?>
<VTKFile type="UnstructuredGrid"  version="0.1"  >
<UnstructuredGrid>
<Piece  NumberOfPoints="597" NumberOfCells="2124">
<Points>
<DataArray  type="Float64"  NumberOfComponents="3"  format="ascii">0 0 0  1 0 0  0 1 0  0 0 1  0.09999999999981467 0 0  0.1999999999995579 0 0  0.2999999999992664 0 0  0.3999999999989749 0 0  0.4999999999986943 0 0  0.5999999999989468 0 0  0.69999999999921 0 0  0.7999999999994734 0 0  0.8999999999997368 0 0  0 0.09999999999981467 0  0 0.1999999999995579 0  0 0.2999999999992664 0  0 0.3999999999989749 0  0 0.4999999999986943 0  0 0.5999999999989468 0  0 0.69999999999921 0  0 0.7999999999994734 0  0 0.8999999999997368 0  0 0 0.09999999999981467  0 0 0.1999999999995579  0 0 0.2999999999992664  0 0 0.3999999999989749  0 0 0.4999999999986943  0 0 0.5999999999989468  0 0 0.69999999999921  0 0 0.7999999999994734  0 0 0.8999999999997368  0.9951847266502585 0.09801714055230534 0  0.9807852803038259 0.1950903225158687 0  0.9569403355024331 0.2902846780119318 0  0.9238795320817892 0.3826834334019886 0  0.8819212636904032 0.4713967380569389 0  0.8314696113679687 0.5555702344182949 0  0.7730104520841969 0.6343932857215511 0  0.7071067795733449 0.7071067827997501 0  0.634393282646958 0.7730104546074502 0  0.5555702316245595 0.8314696132346829 0  0.471396735522105 0.8819212650453002 0  0.3826834312318057 0.9238795329807084 0  0.2902846763682919 0.9569403360010258 0  0.1950903214145686 0.980785280522888 0  0.0980171400302339 0.995184726701678 0  0.9951847266502585 0 0.09801714055230534  0.9807852803038259 0 0.1950903225158687  0.9569403355024331 0 0.2902846780119318  0.9238795320817892 0 0.3826834334019886  0.8819212636904032 0 0.4713967380569389  0.8314696113679687 0 0.5555702344182949  0.7730104520841969 0 0.6343932857215511  0.7071067795733449 0 0.7071067827997501  0.634393282646958 0 0.7730104546074502  0.5555702316245595 0 0.8314696132346829  0.471396735522105 0 0.8819212650453002  0.3826834312318057 0 0.9238795329807084  0.2902846763682919 0 0.9569403360010258  0.1950903214145686 0 0.980785280522888  0.0980171400302339 0 0.995184726701678  0 0.9951847266502585 0.09801714055230534  0 0.9807852803038259 0.1950903225158687  0 0.9569403355024331 0.2902846780119318  0 0.9238795320817892 0.3826834334019886  0 0.8819212636904032 0.4713967380569389  0 0.8314696113679687 0.5555702344182949  0 0.7730104520841969 0.6343932857215511  0 0.7071067795733449 0.7071067827997501  0 0.634393282646958 0.7730104546074502  0 0.5555702316245595 0.8314696132346829  0 0.471396735522105 0.8819212650453002  0 0.3826834312318057 0.9238795329807084  0 0.2902846763682919 0.9569403360010258  0 0.1950903214145686 0.980785280522888  0 0.0980171400302339 0.995184726701678  0.09240154966779951 0 0.3658235692199516  0.07916357488785433 0 0.4469199030523527  0.1536813483092524 0 0.4301465381022301  0.2555379022644893 0 0.09556049568595243  0.1864593291765566 0 0.2034979771761179  0.301651764011142 0 0.1939053326038485  0.1881720785854029 0 0.3302588474155368  0.08403438330774521 0 0.6437268466185475  0.09138388892861184 0 0.5324072873297468  0.1930859140709486 0 0.7878139522981464  0.2165176696171426 0 0.900824597607195  0.292033522918994 0 0.8485491372975176  0.8037370491763215 0 0.0819245024222376  0.13014171782822 0 0.8868491929551598  0.08390174260734276 0 0.8253161934654943  0.0912526277304111 0 0.7448765232291942  0.8893622411880446 0 0.270275215225845  0.8593018882538136 0 0.1801969264281539  0.8024703672696746 0 0.2475353432181931  0.3476914857890963 0 0.4125368919261175  0.2997235777995208 0 0.3096876237048341  0.2490386282757974 0 0.412527605219857  0.4554126154120848 0 0.2518749964366375  0.39715257119151 0 0.3258159451822259  0.4883877361055989 0 0.3266984434363212  0.08966539318254355 0 0.2701713986717769  0.08377502767602918 0 0.164580120521203  0.3869558528229924 0 0.8037364723405749  0.1791913905804899 0 0.6945879747883159  0.1628348997531483 0 0.5951991143072877  0.2434219731662663 0 0.6106761106298939  0.3204481765543245 0 0.6201302437713152  0.2846206283417919 0 0.7159219267704837  0.3832252637688779 0 0.6893291551637116  0.1561812521325313 0 0.09527745928338882  0.8122499659106144 0 0.3273472587872134  0.2026260329838435 0 0.5147603927306801  0.3051207491780334 0 0.5196560474248884  0.5886190882535927 0 0.5879547877726188  0.5628286668856228 0 0.4841066442899339  0.4793970684942127 0 0.5419440173923771  0.4015076433379883 0 0.1595345792024606  0.4550663848726773 0 0.08400234057127416  0.3574412370957718 0 0.08514557536940835  0.4777735346904641 0 0.6420237002140541  0.5886050303809575 0 0.712791733722679  0.7032448955145116 0 0.5547060123784804  0.3710082806848816 0 0.2384994559961529  0.6343947712920404 0 0.1960314230465952  0.7205780420889929 0 0.2811987241304542  0.745939430962431 0 0.1834190974026157  0.6797060130425652 0 0.1027709852058109  0.5617353506566283 0 0.09368054426051139  0.5099863318045709 0 0.1736146479983669  0.767516113391133 0 0.4796577434100839  0.6547738563668709 0 0.4463662193850245  0.4595209371514753 0 0.4253249285837939  0.3873123962753185 0 0.4899626124422253  0.3876250349852705 0 0.5839247669697213  0.07755778095112512 0 0.07322480571131515  0.6662618639536104 0 0.6404224526940073  0.6281317226641706 0 0.5172795154653362  0.5467991787548994 0 0.2775110285514451  0.6382784164401777 0 0.32558335190295  0.7209625386664502 0 0.3760300013763025  0.4777689774710401 0 0.7650512433185178  0.8150026845526732 0 0.4083495007681245  0.5566757769165783 0 0.3852531587967231  0.08307535298787436 0 0.9466352209487393  0.9264479164039098 0 0.09196696687313166  0.2397696045481275 0 0.2516617606603849  0.08142379610690136 0.4255946222877561 0.9012432429190713  0.09186671735860186 0.5103340042487068 0.8550553843753256  0.9658493887414453 0.07517233868428744 0.2479598309495128  0.2588669386047153 0.4173196613385269 0.8711097567802347  0.349931687668115 0.4640670731596268 0.8137503091088829  0.2521091443082024 0.5198490772623717 0.8162094806026494  0.3381706165708041 0.3470207631890471 0.8747669541105296  0.4127313919422814 0.6915412096022421 0.5928098797483512  0.505094034203222 0.6002477622197614 0.6201472732847281  0.5053541985510116 0.6749299798537994 0.5376677936248502  0.5711974176563547 0.6081084457949028 0.5513053856218164  0.2265606352222516 0.3190644824037021 0.9202543858282597  0.1657801920411619 0.4763492767397394 0.8634861287110075  0.1656568208377873 0.3895779149708851 0.9059728836322062  0.501344556404584 0.2277556352228774 0.8347340932223356  0.4415367071350051 0.3068779784495727 0.8431318061816198  0.4059460944519277 0.2465220798785426 0.8800196773547647  0.6196876017566089 0.7450935593761555 0.2466229186537899  0.627698728320387 0.714123017011242 0.3098751733194038  0.6711018023358704 0.69515091935471 0.2576578549585624  0.5155953815884997 0.3094099022200982 0.7990162169147497  0.899989132227882 0.4289906012996104 0.07737328911389559  0.9382293875188548 0.3361973257557999 0.08183504475860598  0.2363183186651487 0.9697312279355392 0.06144101097726593  0.2993323950146074 0.9481462475789452 0.106858834434898  0.3101615066201264 0.2414838162804179 0.9195028038487859  0.4482922838801319 0.1771577048152243 0.8761559084079369  0.5266326972169642 0.1057746683003005 0.8434866458741044  0.4200451415729211 0.09020206018716082 0.9030092288448531  0.7623891105001969 0.5843698709159578 0.2779832695620105  0.7799115838824263 0.596929282445646 0.1881843592994147  0.7264879983305693 0.6504346235700518 0.2216979673856474  0.8178732076005444 0.5297083005156807 0.2247054353013872  0.08303734348179403 0.1922053315992417 0.9778353184930026  0.09408269694107538 0.07627092328721888 0.9926385003601306  0.1760515877647063 0.1196852712822077 0.9770779264130525  0.5576143975194612 0.3637809431371279 0.7461431558952143  0.4455986119305068 0.3912097319557027 0.8052309126385754  0.8060332204752099 0.4925189261569118 0.3282309474556054  0.7346451337886817 0.5624574787189985 0.379391765901261  0.642508165502269 0.2904084282097414 0.7091164940174894  0.7030254185009037 0.306273768786429 0.6418345888895255  0.6340141384684502 0.3769833468372913 0.6752108029567235  0.365152486570974 0.1655128603952953 0.9161163433728284  0.5962792236506059 0.542109883053058 0.5920877993497508  0.5485896415631504 0.5085733599282969 0.6636283167111371  0.5920678220815722 0.6464708649476155 0.4811768020483384  0.1878625042731283 0.2239323962641036 0.9563273296270713  0.1024217313722561 0.3092935774102874 0.9454349644028699  0.2334505071908325 0.06487815783086033 0.9702018786463037  0.4887206245964966 0.8674866792832123 0.09283863613924619  0.5742874233407752 0.8143734795796027 0.08360497084518105  0.9317006522490203 0.08389294215323394 0.3534060962343804  0.951181716421189 0.1590863374964037 0.2644709427669156  0.5455072387620422 0.7115493400103802 0.4428536882413925  0.9076276342048921 0.3867895805147213 0.1631131448807132  0.8905082493452895 0.127913990281725 0.4366154703376809  0.9096700297655037 0.1954608695184058 0.3664634844476816  0.4909557921631998 0.4638599224188366 0.7374255098075979  0.4820557633059458 0.5398846258057163 0.6900339353119844  0.4181956098394346 0.5173376920524271 0.7466419116905315  0.7346402167242096 0.09513558808181954 0.67175365414096  0.8078263850243458 0.09713596463829366 0.5813614504181416  0.2601336813274003 0.1475738587985683 0.954228706358363  0.3264256065230105 0.07648882390671821 0.9421230191559125  0.4590556119879899 0.7423895417623142 0.4879812633537003  0.6126112913498895 0.686574629053208 0.3915644065170771  0.6684671903139626 0.6091898762120843 0.4266606499250449  0.6977699223891808 0.542245960309553 0.4680667195357594  0.7549550374165268 0.4843931863016896 0.4420476586793638  0.07712060794257616 0.6883652307079324 0.7212528828247291  0.1027005936763692 0.7518617879958691 0.6512729380299598  0.9625479306552708 0.2091983633587219 0.1724457188778192  0.9825939555666527 0.1641265719497667 0.08701486576382911  0.964839163020035 0.2492141217550538 0.08353269432177644  0.97740960683
[...]
<PointData  Vectors="Solid displacement [m]"> 
<DataArray  type="Float64"  Name="Solid displacement [m]"  NumberOfComponents="3" format="ascii">0.0000000000000000e+00 0.0000000000000000e+00 0.0000000000000000e+00  -1.5721174518529296e-01 0.0000000000000000e+00 0.0000000000000000e+00  0.0000000000000000e+00 -1.5721118439886342e-01 0.0000000000000000e+00  0.0000000000000000e+00 0.0000000000000000e+00 -1.5721381846983576e-01  -1.4664130994799334e-02 0.0000000000000000e+00 0.0000000000000000e+00  -2.9419660317043798e-02 0.0000000000000000e+00 0.0000000000000000e+00  -4.4329989243593604e-02 0.0000000000000000e+00 0.0000000000000000e+00  -5.9468304916481307e-02 0.0000000000000000e+00 0.0000000000000000e+00  -7.4898441075708574e-02 0.0000000000000000e+00 0.0000000000000000e+00  -9.0656155860466811e-02 0.0000000000000000e+00 0.0000000000000000e+00  -1.0676939940614363e-01 0.0000000000000000e+00 0.0000000000000000e+00  -1.2324330345660729e-01 0.0000000000000000e+00 0.0000000000000000e+00  -1.4006671558419273e-01 0.0000000000000000e+00 0.0000000000000000e+00  0.0000000000000000e+00 -1.4665141783369841e-02 0.0000000000000000e+00  0.0000000000000000e+00 -2.9414091112412680e-02 0.0000000000000000e+00  0.0000000000000000e+00 -4.4323734710486222e-02 0.0000000000000000e+00  0.0000000000000000e+00 -5.9466901084370541e-02 0.0000000000000000e+00  0.0000000000000000e+00 -7.4896704500040032e-02 0.0000000000000000e+00  0.0000000000000000e+00 -9.0655200251964996e-02 0.0000000000000000e+00  0.0000000000000000e+00 -1.0676813354256028e-01 0.0000000000000000e+00  0.0000000000000000e+00 -1.2324420803253039e-01 0.0000000000000000e+00  0.0000000000000000e+00 -1.4006991541356650e-01 0.0000000000000000e+00  0.0000000000000000e+00 0.0000000000000000e+00 -1.4664566382492646e-02  0.0000000000000000e+00 0.0000000000000000e+00 -2.9417994519934924e-02  0.0000000000000000e+00 0.0000000000000000e+00 -4.4326409830756190e-02  0.0000000000000000e+00 0.0000000000000000e+00 -5.9465805954545342e-02  0.0000000000000000e+00 0.0000000000000000e+00 -7.4896844124191148e-02  0.0000000000000000e+00 0.0000000000000000e+00 -9.0654873444295972e-02  0.0000000000000000e+00 0.0000000000000000e+00 -1.0676625202524347e-01  0.0000000000000000e+00 0.0000000000000000e+00 -1.2324213814650488e-01  0.0000000000000000e+00 0.0000000000000000e+00 -1.4006961365098794e-01  -1.5645529685367229e-01 -1.5411443362721218e-02 0.0000000000000000e+00  -1.5419119020607006e-01 -3.0671777081486266e-02 0.0000000000000000e+00  -1.5044124384777374e-01 -4.5637757849512253e-02 0.0000000000000000e+00  -1.4524252249747585e-01 -6.0162545145323244e-02 0.0000000000000000e+00  -1.3864682197014286e-01 -7.4107519540628941e-02 0.0000000000000000e+00  -1.3071782361489806e-01 -8.7340278448005654e-02 0.0000000000000000e+00  -1.2152311504977492e-01 -9.9737925169740130e-02 0.0000000000000000e+00  -1.1116367423027891e-01 -1.1116875877229865e-01 0.0000000000000000e+00  -9.9728933723808214e-02 -1.2152995775835801e-01 0.0000000000000000e+00  -8.7336077068612780e-02 -1.3071887062465129e-01 0.0000000000000000e+00  -7.4110807621951061e-02 -1.3864462795941501e-01 0.0000000000000000e+00  -6.0157055639025236e-02 -1.4524333451046478e-01 0.0000000000000000e+00  -4.5636735370173216e-02 -1.5043688126076687e-01 0.0000000000000000e+00  -3.0670512257403051e-02 -1.5418898177922558e-01 0.0000000000000000e+00  -1.5412908196443592e-02 -1.5645541138249752e-01 0.0000000000000000e+00  -1.5645615181970055e-01 0.0000000000000000e+00 -1.5411094007036885e-02  -1.5419265090438949e-01 0.0000000000000000e+00 -3.0666423348149601e-02  -1.5044168409815814e-01 0.0000000000000000e+00 -4.5638970970003551e-02  -1.4524914385097887e-01 0.0000000000000000e+00 -6.0156263203344273e-02  -1.3865075651476955e-01 0.0000000000000000e+00 -7.4113897209255236e-02  -1.3071506514431597e-01 0.0000000000000000e+00 -8.7350523041225869e-02  -1.2152449193532379e-01 0.0000000000000000e+00 -9.9734639910387737e-02  -1.1117031622717323e-01 0.0000000000000000e+00 -1.1116206884737712e-01  -9.9728687059850121e-02 0.0000000000000000e+00 -1.2153403121176772e-01  -8.7338105699952318e-02 0.0000000000000000e+00 -1.3071669341536249e-01  -7.4112549072890166e-02 0.0000000000000000e+00 -1.3864523896574379e-01  -6.0167276779393250e-02 0.0000000000000000e+00 -1.4524580995100606e-01  -4.5637088345218464e-02 0.0000000000000000e+00 -1.5044621834714425e-01  -3.0661149793482410e-02 0.0000000000000000e+00 -1.5419428185170539e-01  -1.5411255240313925e-02 0.0000000000000000e+00 -1.5645868729130491e-01  0.0000000000000000e+00 -1.5645298714058525e-01 -1.5420909224103458e-02  0.0000000000000000e+00 -1.5418621745307334e-01 -3.0672516321695785e-02  0.0000000000000000e+00 -1.5043311881749860e-01 -4.5644333240683212e-02  0.0000000000000000e+00 -1.4524097016396212e-01 -6.0158650248142390e-02  0.0000000000000000e+00 -1.3864339222581859e-01 -7.4107666377060233e-02  0.0000000000000000e+00 -1.3071962076882734e-01 -8.7331156067435231e-02  0.0000000000000000e+00 -1.2152263578844323e-01 -9.9734587162096239e-02  0.0000000000000000e+00 -1.1116767647510674e-01 -1.1115825487826073e-01  0.0000000000000000e+00 -9.9733566430763088e-02 -1.2152174852101807e-01  0.0000000000000000e+00 -8.7337706781703786e-02 -1.3071561604406234e-01  0.0000000000000000e+00 -7.4108321518389211e-02 -1.3864523001798862e-01  0.0000000000000000e+00 -6.0157553951600787e-02 -1.4524374768098824e-01  0.0000000000000000e+00 -4.5636707407695258e-02 -1.5043980284319172e-01  0.0000000000000000e+00 -3.0676082954719956e-02 -1.5419111943469119e-01  0.0000000000000000e+00 -1.5417819641713171e-02 -1.5645691110719298e-01  -1.3717290613993774e-02 0.0000000000000000e+00 -5.4303182473908300e-02  -1.1818439621322672e-02 0.0000000000000000e+00 -6.6702891469822792e-02  -2.2942305712326055e-02 0.0000000000000000e+00 -6.4214579195649130e-02  -3.7707892879592420e-02 0.0000000000000000e+00 -1.4099524137274602e-02  -2.7518216574995948e-02 0.0000000000000000e+00 -3.0031111981092661e-02  -4.4725922075963521e-02 0.0000000000000000e+00 -2.8748651876089729e-02  -2.7937895451858138e-02 0.0000000000000000e+00 -4.9034638225889063e-02  -1.2756261785245025e-02 0.0000000000000000e+00 -9.7706084144078387e-02  -1.3736716404887614e-02 0.0000000000000000e+00 -8.0017932061569194e-02  -2.9780461913411962e-02 0.0000000000000000e+00 -1.2150292177189169e-01  -3.3788017850905745e-02 0.0000000000000000e+00 -1.4057640125741280e-01  -4.5437431565440820e-02 0.0000000000000000e+00 -1.3202720779556806e-01  -1.2391824578661573e-01 0.0000000000000000e+00 -1.2629972844918562e-02  -2.0247795648604489e-02 0.0000000000000000e+00 -1.3797059198910422e-01  -1.2965646616339003e-02 0.0000000000000000e+00 -1.2752475476394373e-01  -1.3989240727039012e-02 0.0000000000000000e+00 -1.1417829481338247e-01  -1.3882831351949668e-01 0.0000000000000000e+00 -4.2190193922142308e-02  -1.3343362011088630e-01 0.0000000000000000e+00 -2.7981689195016875e-02  -1.2412393575968371e-01 0.0000000000000000e+00 -3.8289107587827179e-02  -5.2256217115485261e-02 0.0000000000000000e+00 -6.1998047054241411e-02  -4.4661029434527905e-02 0.0000000000000000e+00 -4.6143239043387803e-02  -3.7251483113723304e-02 0.0000000000000000e+00 -6.1704005248565681e-02  -6.8333500233069791e-02 0.0000000000000000e+00 -3.7795560824182395e-02  -5.9559515181023370e-02 0.0000000000000000e+00 -4.8861658164993792e-02  -7.3709372641703116e-02 0.0000000000000000e+00 -4.9307345920774834e-02  -1.3236915740826216e-02 0.0000000000000000e+00 -3.9888934038654088e-02  -1.2315232697677217e-02 0.0000000000000000e+00 -2.4193980210503327e-02  -6.0173379553682495e-02 0.0000000000000000e+00 -1.2498331831380081e-01  -2.7377085095836098e-02 0.0000000000000000e+00 -1.0612239883743010e-01  -2.4641106718666182e-02 0.0000000000000000e+00 -9.0068973283246284e-02  -3.6976344434187146e-02 0.0000000000000000e+00 -9.2761412162294540e-02  -4.8866918367388268e-02 0.0000000000000000e+00 -9.4567724756638452e-02  -4.3716448411918039e-02 0.0000000000000000e+00 -1.0996153282991436e-01  -5.8969146377630476e-02 0.0000000000000000e+00 -1.0607185949466870e-01  -2.2958382223705411e-02 0.0000000000000000e+00 -1.4005509962203521e-02  -1.2609847198181851e-01 0.0000000000000000e+00 -5.0820746979797840e-02  -3.0487337958839934e-02 0.0000000000000000e+00 -7.7452240956635290e-02  -4.6113030127051750e-02 0.0000000000000000e+00 -7.8532846376176468e-02  -9.0972823085862686e-02 0.0000000000000000e+00 -9.0870925645926484e-02  -8.6204544435517519e-02 0.0000000000000000e+00 -7.4147752469164344e-02  -7.3290312163097310e-02 0.0000000000000000e+00 -8.2850264262285589e-02  -5.9827849139913361e-02 0.0000000000000000e+00 -2.3770631411942592e-02  -6.7965635630773263e-02 0.0000000000000000e+00 -1.2545785347383617e-02  -5.3026864351898267e-02 0.0000000000000000e+00 -1.2630630320670303e-02  -7.3604606090880320e-02 0.0000000000000000e+00 -9.8907602436101472e-02  -9.1832929647400446e-02 0.0000000000000000e+00 -1.1120921330246476e-01  -1.0939607932356570e-01 0.0000000000000000e+00 -8.6292203909151932e-02  -5.5320753534833358e-02 0.0000000000000000e+00 -3.5563630331662259e-02  -9.6427224105193429e-02 0.0000000000000000e+00 -2.9797373968645693e-02  -1.1071090522890391e-01 0.0000000000000000e+00 -4.3206870721779075e-02  -1.1454674636345004e-01 0.0000000000000000e+00 -2.8166124616735750e-02  -1.0354751612148277e-01 0.0000000000000000e+00 -1.5655667873146366e-02  -8.4643168893510298e-02 0.0000000000000000e+00 -1.4115028852301427e-02  -7.6641137268457143e-02 0.0000000000000000e+00 -2.6090078102009747e-02  -1.1951152197963519e-01 0.0000000000000000e+00 -7.4688219151096635e-02  -1.0079306593623368e-01 0.0000000000000000e+00 -6.8710955298936754e-02  -6.9597159662036653e-02 0.0000000000000000e+00 -6.4418475266241448e-02  -5.8654134669076229e-02 0.0000000000000000e+00 -7.4193602196796438e-02  -5.9129020530986211e-02 0.0000000000000000e+00 -8.9069924047956828e-02  -1.1376901743302116e-02 0.0000000000000000e+00 -1.0740347132734576e-02  -1.0394471271374313e-01 0.0000000000000000e+00 -9.9914841582875516e-02  -9.6899005035181035e-02 0.0000000000000000e+00 -7.9799199964034298e-02  -8.2717937855883869e-02 0.0000000000000000e+00 -4.1983078201201937e-02  -9.7512387923848767e-02 0.0000000000000000e+00 -4.9741900961313729e-02  -1.1121503391450040e-01 0.0000000000000000e+00 -5.8007024305232552e-02  -7.4367830706847132e-02 0.0000000000000000e+00 -1.1908791224829030e-01  -1.2699079727180565e-01 0.0000000000000000e+00 -6.3627358047400509e-02  -8.4718223998471162e-02 0.0000000000000000e+00 -5.8631007624828660e-02  -1.2996513496677952e-02 0.0000000000000000e+00 -1.4808447567107916e-01  -1.4464013567957032e-01 0.0000000000000000e+00 -1.4357938872460415e-02  -3.5527995663906721e-02 0.0000000000000000e+00 -3.7287093758006984e-02  -1.2803113379760043e-02 -6.6903896421421236e-02 -1.4168497033815497e-01  -1.4443723939444712e-02 -8.0227982239081314e-02 -1.3442244487108604e-01  -1.5184310460253245e-01 -1.1820870900815666e-02 -3.8984747160838606e-02  -4.0699839009677774e-02 -6.5605557921131055e-02 -1.3693703660905696e-01  -5.5004016692342644e-02 -7.2948395617908071e-02 -1.2792545381132228e-01  -3.9638156439786555e-02 -8.1718730544832710e-02 -1.2831043881883142e-01  -5.3160521105160341e-02 -5.4559627407977256e-02 -1.3751266015195118e-01  -6.4881506270106928e-02 -1.0870869945925608e-01 -9.3191666894367503e-02  -7.9393901972240971e-02 -9.4366772265495155e-02 -9.7488491669182872e-02  -7.9436028179199675e-02 -1.0610212728861326e-01 -8.4527667741362902e-02  -8.9787725352999143e-02 -9.5600348760823003e-02 -8.6672131607496664e-02  -3.5618796421152503e-02 -5.0160467466344887e-02 -1.4466731548722048e-01  -2.6069450121543387e-02 -7.4883854744241141e-02 -1.3574449705656921e-01  -2.6046508578022251e-02 -6.1243013216313563e-02 -1.4242500840652061e-01  -7.8814698211559925e-02 -3.5807642838297973e-02 -1.3122713635100064e-01  -6.9404443953532916e-02 -4.8252515563317555e-02 -1.3254509676266160e-01  -6.3812152463967639e-02 -3.8765176254644186e-02 -1.3834574792277479e-01  -9.7417845915449816e-02 -1.1713747301429449e-01 -3.8772966857648791e-02  -9.8676579168655174e-02 -1.1226644123605314e-01 -4.8722381707338815e-02  -1.0550278383813216e-01 -1.0928360945846666e-01 -4.0508086276392144e-02  -8.1050358954119411e-02 -4.8648599881600876e-02 -1.2561121918983928e-01  -1.4148561716416597e-01 -6.7441424483256310e-02 -1.2167415162256856e-02  -1.4749776649964325e-01 -5.2855813286505487e-02 -1.2867643735397758e-02  -3.7153722321824879e-02 -1.5244956330877915e-01 -9.6634401642507750e-03  -4.7056309685771708e-02 -1.4905434823775632e-01 -1.6807918478162136e-02  -4.8755561849163798e-02 -3.7972713048936124e-02 -1.4455072332348803e-01  -7.0477301623018893e-02 -2.7853799493187687e-02 -1.3774184161227232e-01  -8.2789784359436000e-02 -1.6628115278461610e-02 -1.3260656113964367e-01  -6.6040573011738130e-02 -1.4181881849524958e-02 -1.4196422968852021e-01  -1.1985159101075445e-01 -9.1864419953222934e-02 -4.3709845136854802e-02  -1.2260847723770039e-01 -9.3843566758906857e-02 -2.9590421523011140e-02  -1.1420921201139562e-01 -1.0225421999402394e-01 -3.4856225847041393e-02  -1.2857559359019408e-01 -8.3272130660510965e-02 -3.5332169750813887e-02  -1.3057230676873742e-02 -3.0223190967108637e-02 -1.5372463486721932e-01  -1.4791961309684383e-02 -1.1996576588957539e-02 -1.5605630472281354e-01  -2.7672448067781161e-02 -1.8822612614409210e-02 -1.5360869545700032e-01  -8.7655281845628624e-02 -5.7192954107449491e-02 -1.1729961367963863e-01  -7.0043500847425152e-02 -6.1501580687936985e-02 -1.2658691894994045e-01  -1.2670876489918495e-01 -7.7430297447666677e-02 -5.1604228050702569e-02  -1.1549030869635243e-01 -8.8420303079657064e-02 -5.9641805725321698e-02  -1.0100543946577450e-01 -4.5658286315944478e-02 -1.1147935363185156e-01  -1.1051830206302017e-01 -4.8153526097738944e-02 -1.0090209058012573e-01  -9.9670065387288703e-02 -5.9265976376546764e-02 -1.0614826369367172e-01  -5.7402011462170707e-02 -2.6026664892747430e-02 -1.4402344915482113e-01  -9.3736829228658558e-02 -8.5223882386608399e-02 -9.3079887165789313e-02  -8.6238784417485573e-02 -7.9956242487766699e-02 -1.0432659052444179e-01  -9.3073210061326905e-02 -1.0163090726376144e-01 -7.5646274699792362e-02  -2.9533170395976700e-02 -3.5212866313153957e-02 -1.5034028783782161e-01  -1.6104631031688788e-02 -4.8624642285113907e-02 -1.4862870479883603e-01  -3.6699332828237771e-02 -1.0203959567894423e-02 -1.5253183283443086e-01  -7.6828887787826330e-02 -1.3637811283258353e-01 -1.4597733229209101e-02  -9.0282209475228928e-02 -1.2802966311058597e-01 -1.3143642111252733e-02  -1.4647433267703855e-01 -1.3196309315941906e-02 -5.5553867414909149e-02  -1.4953176988204508e-01 -2.5013058808907074e-02 -4.1581894647851357e-02  -8.5752342651943300e-02 -1.1186087206588567e-01 -6.9622880081470565e-02  -1.4268569109012910e-01 -6.0808519130640185e-02 -2.5644079828086291e-02  -1.4000111888281166e-01 -2.0116133347560891e-02 -6.8637017442932435e-02  -1.4301052886336976e-01 -3.0729220341937532e-02 -5.7605531629197286e-02  -7.7177705253175174e-02 -7.2919321854891681e-02 -1.1592964105289237e-01  -7.5775295464123940e-02 -8.4877352100116807e-02 -1.0847511093950997e-01  -6.5735499649535789e-02 -8.1330879783031301e-02 -1.1737450175724691e-01  -1.1549429361627914e-01 -1.4957618440224989e-02 -1.0560495434418317e-01  -1.2699712537419314e-01 -1.5271601849981662e-02 -9.1402091638094457e-02  -4.0896862552836928e-02 -2.3211782976347760e-02 -1.5001345957367568e-01  -5.1319779432713604e-02 -1.2031412420480125e-02 -1.4811506231647747e-01  -7.2158126552800322e-02 -1.1670649954779937e-01 -7.6718636453988950e-02  -9.6305502261464393e-02 -1.0793289738621496e-01 -6.1559935983940314e-02  -1.0508491829588917e-01 -9.5771653006927540e-02 -6.7071974779752172e-02  -1.0969531501985272e-01 -8.5242369282649319e-02 -7.3585001817889226e-02  -1.1868220975132229e-01 -7.6149677179254402e-02 -6.9493341893244770e-02  -1.2123831620429947e-02 -1.0821957349230263e-01 -1.1338576641652594e-01  -1.6148727168882181e-02 -1.1820040416561536e-01 -1.0238191460607371e-01  -1.5132065170270878e-01 -3.2888322505880606e-02 -2.7113506111819712e-02  -1.5447493778200547e-01 -2.5802198982130615e-02 -1.3681659537050602e-02  -1.5168231920700365e-01 -3.9180727183507381e-02 -1.3134629711772055e-02  -1.5365931115086900e-01 -1.7796711529560569e-02 -2.8060415957575295e-02  -1.2006626345190946e-01 -4.9138386294763262e-02 -8.8790601587921625e-02  -1.0991357186852002e-01 -6.1591264685242640e-02 -9.4018086895864675e-02  -1.4638892275201096e-01 -4.0027472854969430e-02 -4.1018315280270126e-02  -1.0991416807410682e-02 -1.2715651654997581e-01 -9.1789440245896053e-02  -2.7277030833677173e-02 -1.2676876319002486e-01 -8.8877698809583849e-02  -5.3358631308477802e-02 -8.8348214721502338e-02 -1.1857289489679045e-01  -1.0749772527757158e-01 -7.6169206620844920e-02 -8.5769385980358617e-02  -9.7783773705162710e-02 -7.2233155844856456e-02 -9.9672401886743311e-02  -1.7863580621491841e-02 -1.3524892449345652e-01 -7.8116799600777637e-02  -3.5044587032126824e-02 -1.3367592153130078e-01 -7.4939027196578828e-02  -2.6480821667288566e-02 -1.4125466843953238e-01 -6.3710270942993794e-02  -1.0027457720410735e-01 -9.0299758486192622e-02 -8.0653382063460566e-02  -8.9725585608714603e-02 -6.9051146988341014e-02 -1.0906520485746050e-01  -1.4768418594439947e-01 -4.6778423372921263e-02 -2.6752571876401784e-02  -1.8864110749592832e-02 -1.4796661376176015e-01 -4.9628623601060851e-02  -3.5130266500745307e-02 -1.4524122655663496e-01 -4.8823846536856973e-02  -2.8203612197720874e-02 -1.5049887316979113e-01 -3.5601679927533228e-02  -4.6364980999499886e-02 -1.4635411402709075e-01 -3.3812580495504806e-02  -4.1579292476186275e-02 -1.2514538262409447e-01 -8.5577379401221274e-02  -3.4245358052729512e-02 -1.1770454616396618e-01 -9.8419182745023731e-02  -1.3586613854512447e-01 -7.4789513044538222e-02 -2.5711160999521664e-02  -1.3570796650763700e-01 -6.9615394467862746e-02 -3.8098419261144913e-02  -1.3309264950764474e-01 -2.3819881716791919e-02 -8.0221720172715574e-02  -1.3582484575722420e-01 -3.3579788908945592e-02 -7.1690863016762543e-02  -1.2710651813720150e-01 -3.3872047599087365e-02 -8.6092249853421066e-02  -1.2983091650531639e-01 -4.9114866235569217e-02 -7.3801635660902143e-02  -1.2839005461073791e-01 -8.8252114503579962e-02 -2.1043402054739535e-02  -1.3416763683357094e-01 -8.1099110532748153e-02 -1.1703487248968265e-02  -1.2739128003524708e-01 -9.1618056953655144e-02 -9.6699712076426005e-03  -6.5550769930937780e-02 -9.4106843480173008e-02 -1.0751208936350340e-01  -1.4227890534726639e-01 -5.4381689386567851e-02 -3.8910489622772285e-02  -1.1984480980692050e-01 -9.9951868534385049e-02 -1.9036209859236857e-02  -5.6419992363978842e-02 -1.4635706199792306e-01 -1.0529222728781552e-02  -1.3456986061428497e-01 -6.4431566006379878e-02 -4.9543154685482427e-02  -4.0834332522946493e-02 -9.5411707887426520e-02 -1.1807617413163751e-01  -2.5982929429551264e-02 -8.9345819145767502e-02 -1.2671399311121759e-01  -3.0182213719588871e-02 -1.0024494506062342e-01 -1.1727821672991509e-01  -4.0842128646471666e-02 -1.0844975838067196e-01 -1.0622397617649113e-01  -2.5621461800538127e-02 -1.0917004814899520e-01 -1.1017853080306596e-01  -1.1164033921114690e-01 -3.2433481948716210e-02 -1.0582394315104722e-01  -1.0653055229797036e-01 -2.1535702257319017e-02 -1.1359077340831523e-01  -1.4028003124108648e-01 -4.8296862646699718e-02 -5.2005097750564160e-02  -9.6544686618410203e-02 -1.5367089237194405e-02 -1.2312103966959807e-01  -9.9943458786063324e-02 -3.1151341230452705e-02 -1.1728509966237170e-01  -1.0490080110845632e-01 -9.6871157528151553e-03 -1.1669837278410874e-01  -1.3714602666908537e-01 -4.2835949632997368e-02 -6.3807552932775166e-02  -1.3454295797363969e-01 -5.5048037069875350e-02 -5.9863607723454330e-02  -8.2436531619462072e-02 -1.3134245804706682e-01 -2.5844071038975177e-02  -8.8454024003181822e-02 -1.2462848907056996e-01 -3.6850901286783519e-02  -9.4255866619149059e-02 -1.2326748110759829e-01 -2.5213685080414005e-02  -7.7959998353036658e-02 -1.2985235767403730e-01 -4.2123763994901503e-02  -7.6947145216737636e-02 -1.208753