<?xml version="1.0"?>
<VTKFile type="UnstructuredGrid"  version="0.1"  >
<UnstructuredGrid>
<Piece  NumberOfPoints="597" NumberOfCells="2124">
<Points>
<DataArray  type="Float64"  NumberOfComponents="3"  format="ascii">0 0 0  1 0 0  0 1 0  0 0 1  0.09999999999981467 0 0  0.1999999999995579 0 0  0.2999999999992664 0 0  0.3999999999989749 0 0  0.4999999999986943 0 0  0.5999999999989468 0 0  0.69999999999921 0 0  0.7999999999994734 0 0  0.8999999999997368 0 0  0 0.09999999999981467 0  0 0.1999999999995579 0  0 0.2999999999992664 0  0 0.3999999999989749 0  0 0.4999999999986943 0  0 0.5999999999989468 0  0 0.69999999999921 0  0 0.7999999999994734 0  0 0.8999999999997368 0  0 0 0.09999999999981467  0 0 0.1999999999995579  0 0 0.2999999999992664  0 0 0.3999999999989749  0 0 0.4999999999986943  0 0 0.5999999999989468  0 0 0.69999999999921  0 0 0.7999999999994734  0 0 0.8999999999997368  0.9951847266502585 0.09801714055230534 0  0.9807852803038259 0.1950903225158687 0  0.9569403355024331 0.2902846780119318 0  0.9238795320817892 0.3826834334019886 0  0.8819212636904032 0.4713967380569389 0  0.8314696113679687 0.5555702344182949 0  0.7730104520841969 0.6343932857215511 0  0.7071067795733449 0.7071067827997501 0  0.634393282646958 0.7730104546074502 0  0.5555702316245595 0.8314696132346829 0  0.471396735522105 0.8819212650453002 0  0.3826834312318057 0.9238795329807084 0  0.2902846763682919 0.9569403360010258 0  0.1950903214145686 0.980785280522888 0  0.0980171400302339 0.995184726701678 0  0.9951847266502585 0 0.09801714055230534  0.9807852803038259 0 0.1950903225158687  0.9569403355024331 0 0.2902846780119318  0.9238795320817892 0 0.3826834334019886  0.8819212636904032 0 0.4713967380569389  0.8314696113679687 0 0.5555702344182949  0.7730104520841969 0 0.6343932857215511  0.7071067795733449 0 0.7071067827997501  0.634393282646958 0 0.7730104546074502  0.5555702316245595 0 0.8314696132346829  0.471396735522105 0 0.8819212650453002  0.3826834312318057 0 0.9238795329807084  0.2902846763682919 0 0.9569403360010258  0.1950903214145686 0 0.980785280522888  0.0980171400302339 0 0.995184726701678  0 0.9951847266502585 0.09801714055230534  0 0.9807852803038259 0.1950903225158687  0 0.9569403355024331 0.2902846780119318  0 0.9238795320817892 0.3826834334019886  0 0.8819212636904032 0.4713967380569389  0 0.8314696113679687 0.5555702344182949  0 0.7730104520841969 0.6343932857215511  0 0.7071067795733449 0.7071067827997501  0 0.634393282646958 0.7730104546074502  0 0.5555702316245595 0.8314696132346829  0 0.471396735522105 0.8819212650453002  0 0.3826834312318057 0.9238795329807084  0 0.2902846763682919 0.9569403360010258  0 0.1950903214145686 0.980785280522888  0 0.0980171400302339 0.995184726701678  0.09240154966779951 0 0.3658235692199516  0.07916357488785433 0 0.4469199030523527  0.1536813483092524 0 0.4301465381022301  0.2555379022644893 0 0.09556049568595243  0.1864593291765566 0 0.2034979771761179  0.301651764011142 0 0.1939053326038485  0.1881720785854029 0 0.3302588474155368  0.08403438330774521 0 0.6437268466185475  0.09138388892861184 0 0.5324072873297468  0.1930859140709486 0 0.7878139522981464  0.2165176696171426 0 0.900824597607195  0.292033522918994 0 0.8485491372975176  0.8037370491763215 0 0.0819245024222376  0.13014171782822 0 0.8868491929551598  0.08390174260734276 0 0.8253161934654943  0.0912526277304111 0 0.7448765232291942  0.8893622411880446 0 0.270275215225845  0.8593018882538136 0 0.1801969264281539  0.8024703672696746 0 0.2475353432181931  0.3476914857890963 0 0.4125368919261175  0.2997235777995208 0 0.3096876237048341  0.2490386282757974 0 0.412527605219857  0.4554126154120848 0 0.2518749964366375  0.39715257119151 0 0.3258159451822259  0.4883877361055989 0 0.3266984434363212  0.08966539318254355 0 0.2701713986717769  0.08377502767602918 0 0.164580120521203  0.3869558528229924 0 0.8037364723405749  0.1791913905804899 0 0.6945879747883159  0.1628348997531483 0 0.5951991143072877  0.2434219731662663 0 0.6106761106298939  0.3204481765543245 0 0.6201302437713152  0.2846206283417919 0 0.7159219267704837  0.3832252637688779 0 0.6893291551637116  0.1561812521325313 0 0.09527745928338882  0.8122499659106144 0 0.3273472587872134  0.2026260329838435 0 0.5147603927306801  0.3051207491780334 0 0.5196560474248884  0.5886190882535927 0 0.5879547877726188  0.5628286668856228 0 0.4841066442899339  0.4793970684942127 0 0.5419440173923771  0.4015076433379883 0 0.1595345792024606  0.4550663848726773 0 0.08400234057127416  0.3574412370957718 0 0.08514557536940835  0.4777735346904641 0 0.6420237002140541  0.5886050303809575 0 0.712791733722679  0.7032448955145116 0 0.5547060123784804  0.3710082806848816 0 0.2384994559961529  0.6343947712920404 0 0.1960314230465952  0.7205780420889929 0 0.2811987241304542  0.745939430962431 0 0.1834190974026157  0.6797060130425652 0 0.1027709852058109  0.5617353506566283 0 0.09368054426051139  0.5099863318045709 0 0.1736146479983669  0.767516113391133 0 0.4796577434100839  0.6547738563668709 0 0.4463662193850245  0.4595209371514753 0 0.4253249285837939  0.3873123962753185 0 0.4899626124422253  0.3876250349852705 0 0.5839247669697213  0.07755778095112512 0 0.07322480571131515  0.6662618639536104 0 0.6404224526940073  0.6281317226641706 0 0.5172795154653362  0.5467991787548994 0 0.2775110285514451  0.6382784164401777 0 0.32558335190295  0.7209625386664502 0 0.3760300013763025  0.4777689774710401 0 0.7650512433185178  0.8150026845526732 0 0.4083495007681245  0.5566757769165783 0 0.3852531587967231  0.08307535298787436 0 0.9466352209487393  0.9264479164039098 0 0.09196696687313166  0.2397696045481275 0 0.2516617606603849  0.08142379610690136 0.4255946222877561 0.9012432429190713  0.09186671735860186 0.5103340042487068 0.8550553843753256  0.9658493887414453 0.07517233868428744 0.2479598309495128  0.2588669386047153 0.4173196613385269 0.8711097567802347  0.349931687668115 0.4640670731596268 0.8137503091088829  0.2521091443082024 0.5198490772623717 0.8162094806026494  0.3381706165708041 0.3470207631890471 0.8747669541105296  0.4127313919422814 0.6915412096022421 0.5928098797483512  0.505094034203222 0.6002477622197614 0.6201472732847281  0.5053541985510116 0.6749299798537994 0.5376677936248502  0.5711974176563547 0.6081084457949028 0.5513053856218164  0.2265606352222516 0.3190644824037021 0.9202543858282597  0.1657801920411619 0.4763492767397394 0.8634861287110075  0.1656568208377873 0.3895779149708851 0.9059728836322062  0.501344556404584 0.2277556352228774 0.8347340932223356  0.4415367071350051 0.3068779784495727 0.8431318061816198  0.4059460944519277 0.2465220798785426 0.8800196773547647  0.6196876017566089 0.7450935593761555 0.2466229186537899  0.627698728320387 0.714123017011242 0.3098751733194038  0.6711018023358704 0.69515091935471 0.2576578549585624  0.5155953815884997 0.3094099022200982 0.7990162169147497  0.899989132227882 0.4289906012996104 0.07737328911389559  0.9382293875188548 0.3361973257557999 0.08183504475860598  0.2363183186651487 0.9697312279355392 0.06144101097726593  0.2993323950146074 0.9481462475789452 0.106858834434898  0.3101615066201264 0.2414838162804179 0.9195028038487859  0.4482922838801319 0.1771577048152243 0.8761559084079369  0.5266326972169642 0.1057746683003005 0.8434866458741044  0.4200451415729211 0.09020206018716082 0.9030092288448531  0.7623891105001969 0.5843698709159578 0.2779832695620105  0.7799115838824263 0.596929282445646 0.1881843592994147  0.7264879983305693 0.6504346235700518 0.2216979673856474  0.8178732076005444 0.5297083005156807 0.2247054353013872  0.08303734348179403 0.1922053315992417 0.9778353184930026  0.09408269694107538 0.07627092328721888 0.9926385003601306  0.1760515877647063 0.1196852712822077 0.9770779264130525  0.5576143975194612 0.3637809431371279 0.7461431558952143  0.4455986119305068 0.3912097319557027 0.8052309126385754  0.8060332204752099 0.4925189261569118 0.3282309474556054  0.7346451337886817 0.5624574787189985 0.379391765901261  0.642508165502269 0.2904084282097414 0.7091164940174894  0.7030254185009037 0.306273768786429 0.6418345888895255  0.6340141384684502 0.3769833468372913 0.6752108029567235  0.365152486570974 0.1655128603952953 0.9161163433728284  0.5962792236506059 0.542109883053058 0.5920877993497508  0.5485896415631504 0.5085733599282969 0.6636283167111371  0.5920678220815722 0.6464708649476155 0.4811768020483384  0.1878625042731283 0.2239323962641036 0.9563273296270713  0.1024217313722561 0.3092935774102874 0.9454349644028699  0.2334505071908325 0.06487815783086033 0.9702018786463037  0.4887206245964966 0.8674866792832123 0.09283863613924619  0.5742874233407752 0.8143734795796027 0.08360497084518105  0.9317006522490203 0.08389294215323394 0.3534060962343804  0.951181716421189 0.1590863374964037 0.2644709427669156  0.5455072387620422 0.7115493400103802 0.4428536882413925  0.9076276342048921 0.3867895805147213 0.1631131448807132  0.8905082493452895 0.127913990281725 0.4366154703376809  0.9096700297655037 0.1954608695184058 0.3664634844476816  0.4909557921631998 0.4638599224188366 0.7374255098075979  0.4820557633059458 0.5398846258057163 0.6900339353119844  0.4181956098394346 0.5173376920524271 0.7466419116905315  0.7346402167242096 0.09513558808181954 0.67175365414096  0.8078263850243458 0.09713596463829366 0.5813614504181416  0.2601336813274003 0.1475738587985683 0.954228706358363  0.3264256065230105 0.07648882390671821 0.9421230191559125  0.4590556119879899 0.7423895417623142 0.4879812633537003  0.6126112913498895 0.686574629053208 0.3915644065170771  0.6684671903139626 0.6091898762120843 0.4266606499250449  0.6977699223891808 0.542245960309553 0.4680667195357594  0.7549550374165268 0.4843931863016896 0.4420476586793638  0.07712060794257616 0.6883652307079324 0.7212528828247291  0.1027005936763692 0.7518617879958691 0.6512729380299598  0.9625479306552708 0.2091983633587219 0.1724457188778192  0.9825939555666527 0.1641265719497667 0.08701486576382911  0.964839163020035 0.2492141217550538 0.08353269432177644  0.97740960683
[...]
<PointData  Vectors="Solid displacement [m]"> 
<DataArray  type="Float64"  Name="Solid displacement [m]"  NumberOfComponents="3" format="ascii">0.0000000000000000e+00 0.0000000000000000e+00 0.0000000000000000e+00  -1.5190870490595224e-01 0.0000000000000000e+00 0.0000000000000000e+00  0.0000000000000000e+00 -1.5190790294712331e-01 0.0000000000000000e+00  0.0000000000000000e+00 0.0000000000000000e+00 -1.5191185486696498e-01  -1.3550041016640674e-02 0.0000000000000000e+00 0.0000000000000000e+00  -2.7240830745846132e-02 0.0000000000000000e+00 0.0000000000000000e+00  -4.1170319524499822e-02 0.0000000000000000e+00 0.0000000000000000e+00  -5.5452169597183146e-02 0.0000000000000000e+00 0.0000000000000000e+00  -7.0186341646668676e-02 0.0000000000000000e+00 0.0000000000000000e+00  -8.5429654725155596e-02 0.0000000000000000e+00 0.0000000000000000e+00  -1.0122709364523939e-01 0.0000000000000000e+00 0.0000000000000000e+00  -1.1758813708166102e-01 0.0000000000000000e+00 0.0000000000000000e+00  -1.3449637621138080e-01 0.0000000000000000e+00 0.0000000000000000e+00  0.0000000000000000e+00 -1.3551546602381748e-02 0.0000000000000000e+00  0.0000000000000000e+00 -2.7232148769005166e-02 0.0000000000000000e+00  0.0000000000000000e+00 -4.1160611426188390e-02 0.0000000000000000e+00  0.0000000000000000e+00 -5.5450055596768716e-02 0.0000000000000000e+00  0.0000000000000000e+00 -7.0183716698331927e-02 0.0000000000000000e+00  0.0000000000000000e+00 -8.5428247807140575e-02 0.0000000000000000e+00  0.0000000000000000e+00 -1.0122518144952874e-01 0.0000000000000000e+00  0.0000000000000000e+00 -1.1758958323042626e-01 0.0000000000000000e+00  0.0000000000000000e+00 -1.3450142546633781e-01 0.0000000000000000e+00  0.0000000000000000e+00 0.0000000000000000e+00 -1.3550678772584503e-02  0.0000000000000000e+00 0.0000000000000000e+00 -2.7238210266476531e-02  0.0000000000000000e+00 0.0000000000000000e+00 -4.1164783467974739e-02  0.0000000000000000e+00 0.0000000000000000e+00 -5.5448325393293037e-02  0.0000000000000000e+00 0.0000000000000000e+00 -7.0183852350911236e-02  0.0000000000000000e+00 0.0000000000000000e+00 -8.5427590158522929e-02  0.0000000000000000e+00 0.0000000000000000e+00 -1.0122214526501190e-01  0.0000000000000000e+00 0.0000000000000000e+00 -1.1758625562062273e-01  0.0000000000000000e+00 0.0000000000000000e+00 -1.3450081448697276e-01  -1.5117809370486246e-01 -1.4892770010409007e-02 0.0000000000000000e+00  -1.4899016091702416e-01 -2.9637920152936852e-02 0.0000000000000000e+00  -1.4536597044072705e-01 -4.4099242431661863e-02 0.0000000000000000e+00  -1.4034193189738928e-01 -5.8133240554276155e-02 0.0000000000000000e+00  -1.3396912265589156e-01 -7.1606755257479879e-02 0.0000000000000000e+00  -1.2630914924810910e-01 -8.4392977296415525e-02 0.0000000000000000e+00  -1.1742209075338887e-01 -9.6375858221280988e-02 0.0000000000000000e+00  -1.0741292692507014e-01 -1.0742077676256766e-01 0.0000000000000000e+00  -9.6361935621996922e-02 -1.1743270946483619e-01 0.0000000000000000e+00  -8.4386553615023743e-02 -1.2631078561756429e-01 0.0000000000000000e+00  -7.1612001487170701e-02 -1.3396574560223737e-01 0.0000000000000000e+00  -5.8124765095489146e-02 -1.4034328614655056e-01 0.0000000000000000e+00  -4.4097685868931376e-02 -1.4535926638482433e-01 0.0000000000000000e+00  -2.9635959260147827e-02 -1.4898679926586675e-01 0.0000000000000000e+00  -1.4895063838583246e-02 -1.5117835911810359e-01 0.0000000000000000e+00  -1.5117944275977571e-01 0.0000000000000000e+00 -1.4892220019018966e-02  -1.4899246450910000e-01 0.0000000000000000e+00 -2.9629577379790772e-02  -1.4536666548620522e-01 0.0000000000000000e+00 -4.4101178990302588e-02  -1.4035223234598762e-01 0.0000000000000000e+00 -5.8123520189256539e-02  -1.3397517649539373e-01 0.0000000000000000e+00 -7.1616770799125623e-02  -1.2630474136673550e-01 0.0000000000000000e+00 -8.4408994764290049e-02  -1.1742410467379638e-01 0.0000000000000000e+00 -9.6370739625764507e-02  -1.0742312954952232e-01 0.0000000000000000e+00 -1.0741030155690222e-01  -9.6361392380912930e-02 0.0000000000000000e+00 -1.1743898871287782e-01  -8.4389565287395260e-02 0.0000000000000000e+00 -1.2630725345186297e-01  -7.1614602321765169e-02 0.0000000000000000e+00 -1.3396654627516022e-01  -5.8140615897409306e-02 0.0000000000000000e+00 -1.4034698453026490e-01  -4.4098174284950824e-02 0.0000000000000000e+00 -1.4537365056554757e-01  -2.9621324293920379e-02 0.0000000000000000e+00 -1.4899489292475160e-01  -1.4892475568333903e-02 0.0000000000000000e+00 -1.5118330263542781e-01  0.0000000000000000e+00 -1.5117457638584769e-01 -1.4907539487975855e-02  0.0000000000000000e+00 -1.4898250027253174e-01 -2.9639101680254104e-02  0.0000000000000000e+00 -1.4535338332828074e-01 -4.4109577910594985e-02  0.0000000000000000e+00 -1.4033956319980176e-01 -5.8127271157765552e-02  0.0000000000000000e+00 -1.3396377953638378e-01 -7.1607082245768630e-02  0.0000000000000000e+00 -1.2631194103383239e-01 -8.4378837843688131e-02  0.0000000000000000e+00 -1.1742129235163401e-01 -9.6370749369848283e-02  0.0000000000000000e+00 -1.0741907953133537e-01 -1.0740446985886960e-01  0.0000000000000000e+00 -9.6369035803631070e-02 -1.1741994608572102e-01  0.0000000000000000e+00 -8.4388962706840362e-02 -1.2630569227428698e-01  0.0000000000000000e+00 -7.1608006974124519e-02 -1.3396664563340177e-01  0.0000000000000000e+00 -5.8125426205434809e-02 -1.4034387253545055e-01  0.0000000000000000e+00 -4.4097533773370758e-02 -1.4536374445390829e-01  0.0000000000000000e+00 -2.9644569096583959e-02 -1.4899000204129068e-01  0.0000000000000000e+00 -1.4902687266887966e-02 -1.5118054088737351e-01  -1.2778634805093034e-02 0.0000000000000000e+00 -5.0584382046380980e-02  -1.1050505655949562e-02 0.0000000000000000e+00 -6.2357188058860598e-02  -2.1450910253393279e-02 0.0000000000000000e+00 -6.0040247578404697e-02  -3.4988294743611759e-02 0.0000000000000000e+00 -1.3081601595725459e-02  -2.5535852551516917e-02 0.0000000000000000e+00 -2.7866606509854869e-02  -4.1631425398758810e-02 0.0000000000000000e+00 -2.6758515939664152e-02  -2.6028011727673699e-02 0.0000000000000000e+00 -4.5683222144096342e-02  -1.2056985900843449e-02 0.0000000000000000e+00 -9.2343362298178841e-02  -1.2901717364709837e-02 0.0000000000000000e+00 -7.5145898577441916e-02  -2.8434925507005788e-02 0.0000000000000000e+00 -1.1601013062557758e-01  -3.2499073285199437e-02 0.0000000000000000e+00 -1.3521425048012753e-01  -4.3623398054544273e-02 0.0000000000000000e+00 -1.2675719721279671e-01  -1.1829195669920446e-01 0.0000000000000000e+00 -1.2055964219904441e-02  -1.9438885450048765e-02 0.0000000000000000e+00 -1.3245388163700378e-01  -1.2394996561558000e-02 0.0000000000000000e+00 -1.2190320571833674e-01  -1.3306012702805077e-02 0.0000000000000000e+00 -1.0859378440346405e-01  -1.3355724924156759e-01 0.0000000000000000e+00 -4.0588666781312850e-02  -1.2794782964635701e-01 0.0000000000000000e+00 -2.6831565677092158e-02  -1.1873017072300703e-01 0.0000000000000000e+00 -3.6625881285457296e-02  -4.9074532552114677e-02 0.0000000000000000e+00 -5.8220731981831558e-02  -4.1706851558224914e-02 0.0000000000000000e+00 -4.3089446782654639e-02  -3.4875049266463135e-02 0.0000000000000000e+00 -5.7766162946630867e-02  -6.4104198246421620e-02 0.0000000000000000e+00 -3.5457777633241955e-02  -5.5853570898148817e-02 0.0000000000000000e+00 -4.5821509482139706e-02  -6.9409351453731769e-02 0.0000000000000000e+00 -4.6431306775625680e-02  -1.2285700541973353e-02 0.0000000000000000e+00 -3.7025311706625499e-02  -1.1398289277100539e-02 0.0000000000000000e+00 -2.2392612227737509e-02  -5.7751268731721102e-02 0.0000000000000000e+00 -1.1995168984934283e-01  -2.5983550449286491e-02 0.0000000000000000e+00 -1.0072190956539777e-01  -2.3243557309081595e-02 0.0000000000000000e+00 -8.4960498955422278e-02  -3.4964688783979028e-02 0.0000000000000000e+00 -8.7713799444859908e-02  -4.6323995032060326e-02 0.0000000000000000e+00 -8.9647060821465674e-02  -4.1631761121140309e-02 0.0000000000000000e+00 -1.0471729434633538e-01  -5.6222045212897295e-02 0.0000000000000000e+00 -1.0113090233252543e-01  -2.1248487167152330e-02 0.0000000000000000e+00 -1.2962304884024412e-02  -1.2089693143099400e-01 0.0000000000000000e+00 -4.8725279265520144e-02  -2.8651700330262715e-02 0.0000000000000000e+00 -7.2789314756762216e-02  -4.3461336994846500e-02 0.0000000000000000e+00 -7.4015087441125893e-02  -8.6975587524483325e-02 0.0000000000000000e+00 -8.6878671534644777e-02  -8.1946799031967915e-02 0.0000000000000000e+00 -7.0485841575561564e-02  -6.9588360936106000e-02 0.0000000000000000e+00 -7.8664154611500156e-02  -5.5870518724352829e-02 0.0000000000000000e+00 -2.2197547541569791e-02  -6.3566338276825604e-02 0.0000000000000000e+00 -1.1733626312181734e-02  -4.9375813092325548e-02 0.0000000000000000e+00 -1.1760510980338373e-02  -7.0228080076926311e-02 0.0000000000000000e+00 -9.4369812124576125e-02  -8.8317710749066886e-02 0.0000000000000000e+00 -1.0695287600186980e-01  -1.0501566561926920e-01 0.0000000000000000e+00 -8.2838556828443793e-02  -5.1684570396507257e-02 0.0000000000000000e+00 -3.3226784336640877e-02  -9.1218430130083336e-02 0.0000000000000000e+00 -2.8188306229565280e-02  -1.0545167712063114e-01 0.0000000000000000e+00 -4.1156160761117437e-02  -1.0906861841476292e-01 0.0000000000000000e+00 -2.6819229131023480e-02  -9.8095757660368529e-02 0.0000000000000000e+00 -1.4831027500458642e-02  -7.9622426466040577e-02 0.0000000000000000e+00 -1.3277240614431024e-02  -7.1970420471775737e-02 0.0000000000000000e+00 -2.4499591684581965e-02  -1.1479651191020789e-01 0.0000000000000000e+00 -7.1741445553209993e-02  -9.6121274058293654e-02 0.0000000000000000e+00 -6.5525749431947028e-02  -6.5686186292082963e-02 0.0000000000000000e+00 -6.0798843043166274e-02  -5.5354038236664058e-02 0.0000000000000000e+00 -7.0015775868753349e-02  -5.6062917086311649e-02 0.0000000000000000e+00 -8.4449545555304747e-02  -1.0514852941700292e-02 0.0000000000000000e+00 -9.9259203382799591e-03  -9.9963423147606575e-02 0.0000000000000000e+00 -9.6088774920053674e-02  -9.2532709459103149e-02 0.0000000000000000e+00 -7.6203990166826885e-02  -7.8010055523286617e-02 0.0000000000000000e+00 -3.9594908118684387e-02  -9.2546003279132052e-02 0.0000000000000000e+00 -4.7209200051788615e-02  -1.0620093122527906e-01 0.0000000000000000e+00 -5.5392378010942808e-02  -7.1417885270519205e-02 0.0000000000000000e+00 -1.1436571007015940e-01  -1.2203164854636653e-01 0.0000000000000000e+00 -6.1142543674312377e-02  -8.0205210074244235e-02 0.0000000000000000e+00 -5.5508209888454438e-02  -1.2520130312173795e-02 0.0000000000000000e+00 -1.4265081114616956e-01  -1.3916203874854349e-01 0.0000000000000000e+00 -1.3813989599727195e-02  -3.3056015043641092e-02 0.0000000000000000e+00 -3.4690794096299389e-02  -1.2372654439888853e-02 -6.4644337500352908e-02 -1.3690510967367345e-01  -1.3957233173630776e-02 -7.7520209742765633e-02 -1.2988680671488009e-01  -1.4672133880218119e-01 -1.1423867317889616e-02 -3.7671260554827155e-02  -3.9328712635034242e-02 -6.3391290989990592e-02 -1.3231099705008190e-01  -5.3143098773727131e-02 -7.0482637157441616e-02 -1.2360697920064403e-01  -3.8303275080827329e-02 -7.8957616065141206e-02 -1.2397803196777425e-01  -5.1365009961251859e-02 -5.2721444272689960e-02 -1.3286754632428333e-01  -6.2690181511689994e-02 -1.0503598934701397e-01 -9.0045226757505037e-02  -7.6708234143554627e-02 -9.1184031008710156e-02 -9.4196541396051742e-02  -7.6749688753954506e-02 -1.0252026651658981e-01 -8.1676441591768262e-02  -8.6752404299622443e-02 -9.2374674460717163e-02 -8.3748840589190368e-02  -3.4417784087377487e-02 -4.8468249242596316e-02 -1.3978296258171402e-01  -2.5194173724582464e-02 -7.2355539621805728e-02 -1.3116228041375289e-01  -2.5169899227015007e-02 -5.9175175979977075e-02 -1.3761804898160823e-01  -7.6154586207253044e-02 -3.4600798571064947e-02 -1.2679884046140569e-01  -6.7057149264761085e-02 -4.6629361115389546e-02 -1.2807100747334521e-01  -6.1655262727258263e-02 -3.7462853309299847e-02 -1.3367686539368473e-01  -9.4129284230753021e-02 -1.1318622165963527e-01 -3.7465707935649309e-02  -9.5345115707639830e-02 -1.0847822963536537e-01 -4.7082720257202927e-02  -1.0194268819026728e-01 -1.0559590089353958e-01 -3.9142456049858255e-02  -7.8312027247265353e-02 -4.7010914687381902e-02 -1.2137200341909664e-01  -1.3671114402166193e-01 -6.5165895859007103e-02 -1.1759037531503466e-02  -1.4252066749209344e-01 -5.1073842935949874e-02 -1.2434924070397148e-02  -3.5901485040990729e-02 -1.4730513227102932e-01 -9.3399582731001508e-03  -4.5467717712146874e-02 -1.4402341100442695e-01 -1.6246007819368264e-02  -4.7107679178624448e-02 -3.6696886592502198e-02 -1.3967122114081387e-01  -6.8100239011311736e-02 -2.6915712047476739e-02 -1.3309541467442701e-01  -7.9995294799739255e-02 -1.6066669759524428e-02 -1.2813380191719345e-01  -6.3815566837366111e-02 -1.3704116246621134e-02 -1.3717582223049882e-01  -1.1580589640482578e-01 -8.8762423598287288e-02 -4.2239999955330787e-02  -1.1847107116363835e-01 -9.0677597426108050e-02 -2.8595658986156874e-02  -1.1035487128761123e-01 -9.8803944034489360e-02 -3.3682107003316947e-02  -1.2423637674186655e-01 -8.0460652209540615e-02 -3.4143856902609418e-02  -1.2618456510175837e-02 -2.9207351322491273e-02 -1.4853764265079419e-01  -1.4293633329726859e-02 -1.1595390357519464e-02 -1.5079326863568621e-01  -2.6736060103878242e-02 -1.8191623218131208e-02 -1.4842743316502219e-01  -8.4693603002279808e-02 -5.5265031411625129e-02 -1.1334118810457022e-01  -6.7674978221039697e-02 -5.9426231885970994e-02 -1.2231404408519879e-01  -1.2242924105418539e-01 -7.4818678644436393e-02 -4.9865027223581798e-02  -1.1159195652337918e-01 -8.5434931509248635e-02 -5.7628211703099903e-02  -9.7595686619117453e-02 -4.4119666524056300e-02 -1.0771764983976541e-01  -1.0678696661551022e-01 -4.6531348869660503e-02 -9.7497340461827120e-02  -9.6305380927832182e-02 -5.7266598010988178e-02 -1.0256599445117771e-01  -5.5463170788299043e-02 -2.5152321899625345e-02 -1.3916474288762448e-01  -9.0571827700289320e-02 -8.2347771703438072e-02 -8.9938219039572359e-02  -8.3326308717303343e-02 -7.7260628733289802e-02 -1.0080538948330021e-01  -8.9929711578777882e-02 -9.8201575574877020e-02 -7.3094430744046646e-02  -2.8536346166541052e-02 -3.4029782905560364e-02 -1.4526564202075781e-01  -1.5563039703221593e-02 -4.6984394827449913e-02 -1.4361235722475588e-01  -3.5460280564185612e-02 -9.8623318535935450e-03 -1.4738936141105516e-01  -7.4235189518843975e-02 -1.3177736760471684e-01 -1.4106793089195217e-02  -8.7235445975411982e-02 -1.2371141134431396e-01 -1.2700286152414104e-02  -1.4153351814229981e-01 -1.2755551166643954e-02 -5.3676585561330911e-02  -1.4448472881351038e-01 -2.4171010822096866e-02 -4.0181632497775129e-02  -8.2855186560296112e-02 -1.0808579184418834e-01 -6.7275056640126757e-02  -1.3787024152427568e-01 -5.8757674127570970e-02 -2.4779540789835002e-02  -1.3528021323387637e-01 -1.9441467710317469e-02 -6.6319377658177012e-02  -1.3818632117843646e-01 -2.9692950587604582e-02 -5.5658366284010080e-02  -7.4570652029899348e-02 -7.0456624360598422e-02 -1.1201780409658187e-01  -7.3213629811861802e-02 -8.2014908656279098e-02 -1.0481232965537807e-01  -6.3512355216750027e-02 -7.8586970736544887e-02 -1.1341150973125144e-01  -1.1159853995565978e-01 -1.4453778662953319e-02 -1.0204114878299896e-01  -1.2271166118503413e-01 -1.4756881653656632e-02 -8.8322057516960414e-02  -3.9517773132966838e-02 -2.2435553283567920e-02 -1.4495164840897412e-01  -4.9589711192984061e-02 -1.1629394809822511e-02 -1.4312013817264657e-01  -6.9717720903672509e-02 -1.1276630841418701e-01 -7.4132172234788254e-02  -9.3054515456196876e-02 -1.0428930481639058e-01 -5.9484285486546364e-02  -1.0153670407386496e-01 -9.2540959057345995e-02 -6.4807110729546438e-02  -1.0599374569237448e-01 -8.2363904967602070e-02 -7.1102524838564468e-02  -1.1467553331208245e-01 -7.3579370413497464e-02 -6.7148182139718682e-02  -1.1714614335975379e-02 -1.0456940330958649e-01 -1.0955897247290899e-01  -1.5605783401135064e-02 -1.1421266645654445e-01 -9.8925011716876052e-02  -1.4621442851810942e-01 -3.1778870606993817e-02 -2.6200706344815316e-02  -1.4926400602157552e-01 -2.4931596498184209e-02 -1.3221283614093330e-02  -1.4656475556678050e-01 -3.7859877014300332e-02 -1.2692951416052539e-02  -1.4847553758710880e-01 -1.7197589151363189e-02 -2.7113724427980098e-02  -1.1601363829200914e-01 -4.7484144062752399e-02 -8.5792786630074960e-02  -1.0620352401297657e-01 -5.9515256798507353e-02 -9.0843222010377103e-02  -1.4144882306184020e-01 -3.8676224188026458e-02 -3.9635335490768246e-02  -1.0623690673578904e-02 -1.2286756943340023e-01 -8.8690551295181053e-02  -2.6355907580405354e-02 -1.2249023392688656e-01 -8.5877107476248715e-02  -5.1556558045295464e-02 -8.5364834758992245e-02 -1.1456806788145503e-01  -1.0387021273452172e-01 -7.3597062148111847e-02 -8.2874793667311236e-02  -9.4484073617720057e-02 -6.9796674821573909e-02 -9.6306511190896990e-02  -1.7260207483725552e-02 -1.3068461559095917e-01 -7.5478519517557255e-02  -3.3861184117368971e-02 -1.2916364626811175e-01 -7.2408466732696783e-02  -2.5587159373180197e-02 -1.3648576994417982e-01 -6.1559413622905595e-02  -9.6889178038723489e-02 -8.7252100873332350e-02 -7.7932792095684086e-02  -8.6694930086987435e-02 -6.6720553585790793e-02 -1.0538610344541645e-01  -1.4270032753947559e-01 -4.5200619132373374e-02 -2.5850945875423772e-02  -1.8227393586081230e-02 -1.4297030661885901e-01 -4.7954942889695762e-02  -3.3945446370837316e-02 -1.4033706760828080e-01 -4.7175933767129238e-02  -2.7253130337370871e-02 -1.4541645723542551e-01 -3.4402573418915568e-02  -4.4798267876889133e-02 -1.4141148788435642e-01 -3.2675349796250946e-02  -4.0177879539372220e-02 -1.2092119310740942e-01 -8.2688051132746312e-02  -3.3089534870415264e-02 -1.1373152379000576e-01 -9.5096550209983352e-02  -1.3128079450076666e-01 -7.2265208896826277e-02 -2.4844585737866756e-02  -1.3112737037362765e-01 -6.7267595829478152e-02 -3.6814310186001883e-02  -1.2860356363430464e-01 -2.3019488403912762e-02 -7.7517847281557681e-02  -1.3124202876285188e-01 -3.2450363195467700e-02 -6.9273367408710096e-02  -1.2281711119026061e-01 -3.2734088819718503e-02 -8.3188082241661424e-02  -1.2544784191125855e-01 -4.7460467403740068e-02 -7.1314868744050200e-02  -1.2405947880837760e-01 -8.5273397163877898e-02 -2.0336293327604612e-02  -1.2964212511910989e-01 -7.8361019795553377e-02 -1.1310357126464049e-02  -1.2309373686860225e-01 -8.8529415220323412e-02 -9.3447638253788042e-03  -6.3334656406632092e-02 -9.0932068857747017e-02 -1.0387875731677343e-01  -1.3747767541417605e-01 -5.2547763313368606e-02 -3.7597719067032645e-02  -1.1580076519250222e-01 -9.6581909377089409e-02 -1.8395220976068626e-02  -5.4513158448766981e-02 -1.4141941944968150e-01 -1.0176017740948879e-02  -1.3002818128045548e-01 -6.2259973372496599e-02 -4.7872758187263734e-02  -3.9459463723067079e-02 -9.2189354233175383e-02 -1.1408885450521236e-01  -2.5110111409739459e-02 -8.6328738235552635e-02 -1.2243823443756567e-01  -2.9167503096737265e-02 -9.6862098127060495e-02 -1.1331923987104611e-01  -3.9465652092234391e-02 -1.0478713422791823e-01 -1.0263785101667948e-01  -2.4759619393139629e-02 -1.0548669844477784e-01 -1.0645790777951339e-01  -1.0787101050289087e-01 -3.1341710366337670e-02 -1.0225345637381979e-01  -1.0293687726925972e-01 -2.0811947651716303e-02 -1.0975838806556651e-01  -1.3554853988816909e-01 -4.6667583487734955e-02 -5.0250195007840427e-02  -9.3284956629861193e-02 -1.4848906858658329e-02 -1.1897093649374227e-01  -9.6571024877064288e-02 -3.0103770476075979e-02 -1.1332725370825396e-01  -1.0136352081712319e-01 -9.3618908099802854e-03 -1.1276315029719799e-01  -1.3251947670560679e-01 -4.1391129990066805e-02 -6.1654962352902673e-02  -1.3000305211442861e-01 -5.3194049062406962e-02 -5.7846009644044953e-02  -7.9653078842926106e-02 -1.2691125293307978e-01 -2.4974115575284235e-02  -8.5466653049000724e-02 -1.2042383927117709e-01 -3.5610040190865770e-02  -9.1075435034378913e-02 -1.1910819607778471e-01 -2.4364664541221839e-02  -7.5326510070411454e-02 -1.2547011003833713e-01 -4.0704468947581000e-02  -7.4347731724492050e-02 -1.167947