<?xml version="1.0"?>
<VTKFile type="UnstructuredGrid"  version="0.1"  >
<UnstructuredGrid>
<Piece  NumberOfPoints="597" NumberOfCells="2124">
<Points>
<DataArray  type="Float64"  NumberOfComponents="3"  format="ascii">0 0 0  1 0 0  0 1 0  0 0 1  0.09999999999981467 0 0  0.1999999999995579 0 0  0.2999999999992664 0 0  0.3999999999989749 0 0  0.4999999999986943 0 0  0.5999999999989468 0 0  0.69999999999921 0 0  0.7999999999994734 0 0  0.8999999999997368 0 0  0 0.09999999999981467 0  0 0.1999999999995579 0  0 0.2999999999992664 0  0 0.3999999999989749 0  0 0.4999999999986943 0  0 0.5999999999989468 0  0 0.69999999999921 0  0 0.7999999999994734 0  0 0.8999999999997368 0  0 0 0.09999999999981467  0 0 0.1999999999995579  0 0 0.2999999999992664  0 0 0.3999999999989749  0 0 0.4999999999986943  0 0 0.5999999999989468  0 0 0.69999999999921  0 0 0.7999999999994734  0 0 0.8999999999997368  0.9951847266502585 0.09801714055230534 0  0.9807852803038259 0.1950903225158687 0  0.9569403355024331 0.2902846780119318 0  0.9238795320817892 0.3826834334019886 0  0.8819212636904032 0.4713967380569389 0  0.8314696113679687 0.5555702344182949 0  0.7730104520841969 0.6343932857215511 0  0.7071067795733449 0.7071067827997501 0  0.634393282646958 0.7730104546074502 0  0.5555702316245595 0.8314696132346829 0  0.471396735522105 0.8819212650453002 0  0.3826834312318057 0.9238795329807084 0  0.2902846763682919 0.9569403360010258 0  0.1950903214145686 0.980785280522888 0  0.0980171400302339 0.995184726701678 0  0.9951847266502585 0 0.09801714055230534  0.9807852803038259 0 0.1950903225158687  0.9569403355024331 0 0.2902846780119318  0.9238795320817892 0 0.3826834334019886  0.8819212636904032 0 0.4713967380569389  0.8314696113679687 0 0.5555702344182949  0.7730104520841969 0 0.6343932857215511  0.7071067795733449 0 0.7071067827997501  0.634393282646958 0 0.7730104546074502  0.5555702316245595 0 0.8314696132346829  0.471396735522105 0 0.8819212650453002  0.3826834312318057 0 0.9238795329807084  0.2902846763682919 0 0.9569403360010258  0.1950903214145686 0 0.980785280522888  0.0980171400302339 0 0.995184726701678  0 0.9951847266502585 0.09801714055230534  0 0.9807852803038259 0.1950903225158687  0 0.9569403355024331 0.2902846780119318  0 0.9238795320817892 0.3826834334019886  0 0.8819212636904032 0.4713967380569389  0 0.8314696113679687 0.5555702344182949  0 0.7730104520841969 0.6343932857215511  0 0.7071067795733449 0.7071067827997501  0 0.634393282646958 0.7730104546074502  0 0.5555702316245595 0.8314696132346829  0 0.471396735522105 0.8819212650453002  0 0.3826834312318057 0.9238795329807084  0 0.2902846763682919 0.9569403360010258  0 0.1950903214145686 0.980785280522888  0 0.0980171400302339 0.995184726701678  0.09240154966779951 0 0.3658235692199516  0.07916357488785433 0 0.4469199030523527  0.1536813483092524 0 0.4301465381022301  0.2555379022644893 0 0.09556049568595243  0.1864593291765566 0 0.2034979771761179  0.301651764011142 0 0.1939053326038485  0.1881720785854029 0 0.3302588474155368  0.08403438330774521 0 0.6437268466185475  0.09138388892861184 0 0.5324072873297468  0.1930859140709486 0 0.7878139522981464  0.2165176696171426 0 0.900824597607195  0.292033522918994 0 0.8485491372975176  0.8037370491763215 0 0.0819245024222376  0.13014171782822 0 0.8868491929551598  0.08390174260734276 0 0.8253161934654943  0.0912526277304111 0 0.7448765232291942  0.8893622411880446 0 0.270275215225845  0.8593018882538136 0 0.1801969264281539  0.8024703672696746 0 0.2475353432181931  0.3476914857890963 0 0.4125368919261175  0.2997235777995208 0 0.3096876237048341  0.2490386282757974 0 0.412527605219857  0.4554126154120848 0 0.2518749964366375  0.39715257119151 0 0.3258159451822259  0.4883877361055989 0 0.3266984434363212  0.08966539318254355 0 0.2701713986717769  0.08377502767602918 0 0.164580120521203  0.3869558528229924 0 0.8037364723405749  0.1791913905804899 0 0.6945879747883159  0.1628348997531483 0 0.5951991143072877  0.2434219731662663 0 0.6106761106298939  0.3204481765543245 0 0.6201302437713152  0.2846206283417919 0 0.7159219267704837  0.3832252637688779 0 0.6893291551637116  0.1561812521325313 0 0.09527745928338882  0.8122499659106144 0 0.3273472587872134  0.2026260329838435 0 0.5147603927306801  0.3051207491780334 0 0.5196560474248884  0.5886190882535927 0 0.5879547877726188  0.5628286668856228 0 0.4841066442899339  0.4793970684942127 0 0.5419440173923771  0.4015076433379883 0 0.1595345792024606  0.4550663848726773 0 0.08400234057127416  0.3574412370957718 0 0.08514557536940835  0.4777735346904641 0 0.6420237002140541  0.5886050303809575 0 0.712791733722679  0.7032448955145116 0 0.5547060123784804  0.3710082806848816 0 0.2384994559961529  0.6343947712920404 0 0.1960314230465952  0.7205780420889929 0 0.2811987241304542  0.745939430962431 0 0.1834190974026157  0.6797060130425652 0 0.1027709852058109  0.5617353506566283 0 0.09368054426051139  0.5099863318045709 0 0.1736146479983669  0.767516113391133 0 0.4796577434100839  0.6547738563668709 0 0.4463662193850245  0.4595209371514753 0 0.4253249285837939  0.3873123962753185 0 0.4899626124422253  0.3876250349852705 0 0.5839247669697213  0.07755778095112512 0 0.07322480571131515  0.6662618639536104 0 0.6404224526940073  0.6281317226641706 0 0.5172795154653362  0.5467991787548994 0 0.2775110285514451  0.6382784164401777 0 0.32558335190295  0.7209625386664502 0 0.3760300013763025  0.4777689774710401 0 0.7650512433185178  0.8150026845526732 0 0.4083495007681245  0.5566757769165783 0 0.3852531587967231  0.08307535298787436 0 0.9466352209487393  0.9264479164039098 0 0.09196696687313166  0.2397696045481275 0 0.2516617606603849  0.08142379610690136 0.4255946222877561 0.9012432429190713  0.09186671735860186 0.5103340042487068 0.8550553843753256  0.9658493887414453 0.07517233868428744 0.2479598309495128  0.2588669386047153 0.4173196613385269 0.8711097567802347  0.349931687668115 0.4640670731596268 0.8137503091088829  0.2521091443082024 0.5198490772623717 0.8162094806026494  0.3381706165708041 0.3470207631890471 0.8747669541105296  0.4127313919422814 0.6915412096022421 0.5928098797483512  0.505094034203222 0.6002477622197614 0.6201472732847281  0.5053541985510116 0.6749299798537994 0.5376677936248502  0.5711974176563547 0.6081084457949028 0.5513053856218164  0.2265606352222516 0.3190644824037021 0.9202543858282597  0.1657801920411619 0.4763492767397394 0.8634861287110075  0.1656568208377873 0.3895779149708851 0.9059728836322062  0.501344556404584 0.2277556352228774 0.8347340932223356  0.4415367071350051 0.3068779784495727 0.8431318061816198  0.4059460944519277 0.2465220798785426 0.8800196773547647  0.6196876017566089 0.7450935593761555 0.2466229186537899  0.627698728320387 0.714123017011242 0.3098751733194038  0.6711018023358704 0.69515091935471 0.2576578549585624  0.5155953815884997 0.3094099022200982 0.7990162169147497  0.899989132227882 0.4289906012996104 0.07737328911389559  0.9382293875188548 0.3361973257557999 0.08183504475860598  0.2363183186651487 0.9697312279355392 0.06144101097726593  0.2993323950146074 0.9481462475789452 0.106858834434898  0.3101615066201264 0.2414838162804179 0.9195028038487859  0.4482922838801319 0.1771577048152243 0.8761559084079369  0.5266326972169642 0.1057746683003005 0.8434866458741044  0.4200451415729211 0.09020206018716082 0.9030092288448531  0.7623891105001969 0.5843698709159578 0.2779832695620105  0.7799115838824263 0.596929282445646 0.1881843592994147  0.7264879983305693 0.6504346235700518 0.2216979673856474  0.8178732076005444 0.5297083005156807 0.2247054353013872  0.08303734348179403 0.1922053315992417 0.9778353184930026  0.09408269694107538 0.07627092328721888 0.9926385003601306  0.1760515877647063 0.1196852712822077 0.9770779264130525  0.5576143975194612 0.3637809431371279 0.7461431558952143  0.4455986119305068 0.3912097319557027 0.8052309126385754  0.8060332204752099 0.4925189261569118 0.3282309474556054  0.7346451337886817 0.5624574787189985 0.379391765901261  0.642508165502269 0.2904084282097414 0.7091164940174894  0.7030254185009037 0.306273768786429 0.6418345888895255  0.6340141384684502 0.3769833468372913 0.6752108029567235  0.365152486570974 0.1655128603952953 0.9161163433728284  0.5962792236506059 0.542109883053058 0.5920877993497508  0.5485896415631504 0.5085733599282969 0.6636283167111371  0.5920678220815722 0.6464708649476155 0.4811768020483384  0.1878625042731283 0.2239323962641036 0.9563273296270713  0.1024217313722561 0.3092935774102874 0.9454349644028699  0.2334505071908325 0.06487815783086033 0.9702018786463037  0.4887206245964966 0.8674866792832123 0.09283863613924619  0.5742874233407752 0.8143734795796027 0.08360497084518105  0.9317006522490203 0.08389294215323394 0.3534060962343804  0.951181716421189 0.1590863374964037 0.2644709427669156  0.5455072387620422 0.7115493400103802 0.4428536882413925  0.9076276342048921 0.3867895805147213 0.1631131448807132  0.8905082493452895 0.127913990281725 0.4366154703376809  0.9096700297655037 0.1954608695184058 0.3664634844476816  0.4909557921631998 0.4638599224188366 0.7374255098075979  0.4820557633059458 0.5398846258057163 0.6900339353119844  0.4181956098394346 0.5173376920524271 0.7466419116905315  0.7346402167242096 0.09513558808181954 0.67175365414096  0.8078263850243458 0.09713596463829366 0.5813614504181416  0.2601336813274003 0.1475738587985683 0.954228706358363  0.3264256065230105 0.07648882390671821 0.9421230191559125  0.4590556119879899 0.7423895417623142 0.4879812633537003  0.6126112913498895 0.686574629053208 0.3915644065170771  0.6684671903139626 0.6091898762120843 0.4266606499250449  0.6977699223891808 0.542245960309553 0.4680667195357594  0.7549550374165268 0.4843931863016896 0.4420476586793638  0.07712060794257616 0.6883652307079324 0.7212528828247291  0.1027005936763692 0.7518617879958691 0.6512729380299598  0.9625479306552708 0.2091983633587219 0.1724457188778192  0.9825939555666527 0.1641265719497667 0.08701486576382911  0.964839163020035 0.2492141217550538 0.08353269432177644  0.97740960683
[...]
<PointData  Vectors="Solid displacement [m]"> 
<DataArray  type="Float64"  Name="Solid displacement [m]"  NumberOfComponents="3" format="ascii">0.0000000000000000e+00 0.0000000000000000e+00 0.0000000000000000e+00  -1.6507076494517464e-01 0.0000000000000000e+00 0.0000000000000000e+00  0.0000000000000000e+00 -1.6507066544336310e-01 0.0000000000000000e+00  0.0000000000000000e+00 0.0000000000000000e+00 -1.6507112120344697e-01  -1.6328315812142835e-02 0.0000000000000000e+00 0.0000000000000000e+00  -3.2672130980561528e-02 0.0000000000000000e+00 0.0000000000000000e+00  -4.9042185102878784e-02 0.0000000000000000e+00 0.0000000000000000e+00  -6.5450852895100123e-02 0.0000000000000000e+00 0.0000000000000000e+00  -8.1908896396391151e-02 0.0000000000000000e+00 0.0000000000000000e+00  -9.8422313243195045e-02 0.0000000000000000e+00 0.0000000000000000e+00  -1.1499577007885542e-01 0.0000000000000000e+00 0.0000000000000000e+00  -1.3163007807245947e-01 0.0000000000000000e+00 0.0000000000000000e+00  -1.4832331754049360e-01 0.0000000000000000e+00 0.0000000000000000e+00  0.0000000000000000e+00 -1.6328489471346522e-02 0.0000000000000000e+00  0.0000000000000000e+00 -3.2671191058764461e-02 0.0000000000000000e+00  0.0000000000000000e+00 -4.9041127788263854e-02 0.0000000000000000e+00  0.0000000000000000e+00 -6.5450613124563711e-02 0.0000000000000000e+00  0.0000000000000000e+00 -8.1908599604412421e-02 0.0000000000000000e+00  0.0000000000000000e+00 -9.8422147692315332e-02 0.0000000000000000e+00  0.0000000000000000e+00 -1.1499555237760763e-01 0.0000000000000000e+00  0.0000000000000000e+00 -1.3163022741626687e-01 0.0000000000000000e+00  0.0000000000000000e+00 -1.4832385337003740e-01 0.0000000000000000e+00  0.0000000000000000e+00 0.0000000000000000e+00 -1.6328390530502383e-02  0.0000000000000000e+00 0.0000000000000000e+00 -3.2671850034981784e-02  0.0000000000000000e+00 0.0000000000000000e+00 -4.9041578523709904e-02  0.0000000000000000e+00 0.0000000000000000e+00 -6.5450428854180856e-02  0.0000000000000000e+00 0.0000000000000000e+00 -8.1908627269130257e-02  0.0000000000000000e+00 0.0000000000000000e+00 -9.8422100556255832e-02  0.0000000000000000e+00 0.0000000000000000e+00 -1.1499524244556471e-01  0.0000000000000000e+00 0.0000000000000000e+00 -1.3162988666608216e-01  0.0000000000000000e+00 0.0000000000000000e+00 -1.4832381314015022e-01  -1.6427600079141086e-01 -1.6180101876783457e-02 0.0000000000000000e+00  -1.6189901467572179e-01 -3.2203926526419728e-02 0.0000000000000000e+00  -1.5796270172834559e-01 -4.7917784492764369e-02 0.0000000000000000e+00  -1.5250513042414493e-01 -6.3169885160562711e-02 0.0000000000000000e+00  -1.4557915229258242e-01 -7.7813554524809397e-02 0.0000000000000000e+00  -1.3725149620609789e-01 -9.1708086305518424e-02 0.0000000000000000e+00  -1.2760088116440174e-01 -1.0472043520128302e-01 0.0000000000000000e+00  -1.1672234582786481e-01 -1.1672320874114364e-01 0.0000000000000000e+00  -1.0471891157311503e-01 -1.2760203938458931e-01 0.0000000000000000e+00  -9.1707370202230964e-02 -1.3725167317289472e-01 0.0000000000000000e+00  -7.7814103313685559e-02 -1.4557877990142237e-01 0.0000000000000000e+00  -6.3168953305396847e-02 -1.5250526337469039e-01 0.0000000000000000e+00  -4.7917608941355147e-02 -1.5796196005179294e-01 0.0000000000000000e+00  -3.2203711469826320e-02 -1.6189863695137088e-01 0.0000000000000000e+00  -1.6180348297741762e-02 -1.6427601486732038e-01 0.0000000000000000e+00  -1.6427614466049481e-01 0.0000000000000000e+00 -1.6180042693276695e-02  -1.6189926073799021e-01 0.0000000000000000e+00 -3.2203021637194726e-02  -1.5796277658833230e-01 0.0000000000000000e+00 -4.7917986737674868e-02  -1.5250625073769203e-01 0.0000000000000000e+00 -6.3168820713578280e-02  -1.4557982166799172e-01 0.0000000000000000e+00 -7.7814627972414369e-02  -1.3725103699176003e-01 0.0000000000000000e+00 -9.1709814084393645e-02  -1.2760112167392404e-01 0.0000000000000000e+00 -1.0471988048752714e-01  -1.1672347646306729e-01 0.0000000000000000e+00 -1.1672208163136527e-01  -1.0471887936776246e-01 0.0000000000000000e+00 -1.2760273151734172e-01  -9.1707721858178104e-02 0.0000000000000000e+00 -1.3725131310291119e-01  -7.7814404841359236e-02 0.0000000000000000e+00 -1.4557889193618620e-01  -6.3170685172049781e-02 0.0000000000000000e+00 -1.5250569125033597e-01  -4.7917673074071805e-02 0.0000000000000000e+00 -1.5796354758456782e-01  -3.2202133512806097e-02 0.0000000000000000e+00 -1.6189954309533658e-01  -1.6180070386609974e-02 0.0000000000000000e+00 -1.6427657925813180e-01  0.0000000000000000e+00 -1.6427560568358288e-01 -1.6181699128658307e-02  0.0000000000000000e+00 -1.6189816996773604e-01 -3.2204048940177692e-02  0.0000000000000000e+00 -1.5796132578582217e-01 -4.7918889871428103e-02  0.0000000000000000e+00 -1.5250486618428702e-01 -6.3169221571767409e-02  0.0000000000000000e+00 -1.4557857366784066e-01 -7.7813573595476276e-02  0.0000000000000000e+00 -1.3725180158587660e-01 -9.1706541012147438e-02  0.0000000000000000e+00 -1.2760080448205607e-01 -1.0471986670027686e-01  0.0000000000000000e+00 -1.1672302786153700e-01 -1.1672143191880828e-01  0.0000000000000000e+00 -1.0471970181780973e-01 -1.2760065219109337e-01  0.0000000000000000e+00 -9.1707653895330685e-02 -1.3725112562630265e-01  0.0000000000000000e+00 -7.7813691448129690e-02 -1.4557888529193297e-01  0.0000000000000000e+00 -6.3169044956732506e-02 -1.5250533852119452e-01  0.0000000000000000e+00 -4.7917610893695686e-02 -1.5796246029057229e-01  0.0000000000000000e+00 -3.2204656797229676e-02 -1.6189900743366978e-01  0.0000000000000000e+00 -1.6181179860352900e-02 -1.6427627900991634e-01  -1.5115990991332810e-02 0.0000000000000000e+00 -5.9844417280772923e-02  -1.2961626556360155e-02 0.0000000000000000e+00 -7.3172073940820884e-02  -2.5162419145144600e-02 0.0000000000000000e+00 -7.0428409606241971e-02  -4.1764961801647113e-02 0.0000000000000000e+00 -1.5618070326229111e-02  -3.0475436481611561e-02 0.0000000000000000e+00 -3.3259991395047567e-02  -4.9337935789890298e-02 0.0000000000000000e+00 -3.1714722788646531e-02  -3.0783655591781370e-02 0.0000000000000000e+00 -5.4028263210578319e-02  -1.3794775278732156e-02 0.0000000000000000e+00 -1.0567007611132581e-01  -1.4978377584319498e-02 0.0000000000000000e+00 -8.7262631796434453e-02  -3.1775768528094044e-02 0.0000000000000000e+00 -1.2964815146396658e-01  -3.5698350998642790e-02 0.0000000000000000e+00 -1.4852360866689565e-01  -4.8126236321368331e-02 0.0000000000000000e+00 -1.3983859044998240e-01  -1.3226172669912795e-01 0.0000000000000000e+00 -1.3481208686283913e-02  -2.1446802518565955e-02 0.0000000000000000e+00 -1.4614767027157949e-01  -1.3811787624881918e-02 0.0000000000000000e+00 -1.3585997131095889e-01  -1.5002897281256682e-02 0.0000000000000000e+00 -1.2246338853836050e-01  -1.4664060699759857e-01 0.0000000000000000e+00 -4.4563851967646124e-02  -1.4156558753483109e-01 0.0000000000000000e+00 -2.9686597519484020e-02  -1.3212101284789807e-01 0.0000000000000000e+00 -4.0755096318400748e-02  -5.6987350615117574e-02 0.0000000000000000e+00 -6.7614951788405125e-02  -4.9059994522843174e-02 0.0000000000000000e+00 -5.0690526842969277e-02  -4.0787864342757045e-02 0.0000000000000000e+00 -6.7563901201272120e-02  -7.4624003393645305e-02 0.0000000000000000e+00 -4.1272686072496942e-02  -6.5072049224304956e-02 0.0000000000000000e+00 -5.3383833391382557e-02  -8.0099734143611628e-02 0.0000000000000000e+00 -5.3581444789781538e-02  -1.4655813645306028e-02 0.0000000000000000e+00 -4.4160327518809488e-02  -1.3684198500105632e-02 0.0000000000000000e+00 -2.6883293299005229e-02  -6.3763575683767199e-02 0.0000000000000000e+00 -1.3244152694388073e-01  -2.9445181557802458e-02 0.0000000000000000e+00 -1.1413685559681488e-01  -2.6717371495579553e-02 0.0000000000000000e+00 -9.7658166794224260e-02  -3.9963544409453877e-02 0.0000000000000000e+00 -1.0025682261589251e-01  -5.2641380996070172e-02 0.0000000000000000e+00 -1.0187152873547713e-01  -4.6808743925569815e-02 0.0000000000000000e+00 -1.1774046510958956e-01  -6.3043431761563018e-02 0.0000000000000000e+00 -1.1339993381755775e-01  -2.5511223790708887e-02 0.0000000000000000e+00 -1.5562953855691971e-02  -1.3380915152418912e-01 0.0000000000000000e+00 -5.3927061466114520e-02  -3.3216525361289558e-02 0.0000000000000000e+00 -8.4384911838817175e-02  -5.0053053238592514e-02 0.0000000000000000e+00 -8.5245649982121321e-02  -9.6899570389663112e-02 0.0000000000000000e+00 -9.6790340088277957e-02  -9.2521742340379243e-02 0.0000000000000000e+00 -7.9580946299392094e-02  -7.8783755206219191e-02 0.0000000000000000e+00 -8.9062292245259744e-02  -6.5720474254296266e-02 0.0000000000000000e+00 -2.6113075711059714e-02  -7.4513796870147350e-02 0.0000000000000000e+00 -1.3754727626803335e-02  -5.8467740348087910e-02 0.0000000000000000e+00 -1.3927376831696675e-02  -7.8611987498965363e-02 0.0000000000000000e+00 -1.0563724217824935e-01  -9.7042865136575854e-02 0.0000000000000000e+00 -1.1751758850606027e-01  -1.1588896237760243e-01 0.0000000000000000e+00 -9.1411429981632056e-02  -6.0734567641303340e-02 0.0000000000000000e+00 -3.9042886294195063e-02  -1.0416143993467400e-01 0.0000000000000000e+00 -3.2186590505673213e-02  -1.1851198662112265e-01 0.0000000000000000e+00 -4.6248680784177335e-02  -1.2267286141380156e-01 0.0000000000000000e+00 -3.0164074604619062e-02  -1.1164050024345548e-01 0.0000000000000000e+00 -1.6879843807656291e-02  -9.2106337703579025e-02 0.0000000000000000e+00 -1.5360410354378471e-02  -8.3586598231831760e-02 0.0000000000000000e+00 -2.8455237574404085e-02  -1.2650016326316954e-01 0.0000000000000000e+00 -7.9055988796784937e-02  -1.0772181853746272e-01 0.0000000000000000e+00 -7.3434970069531272e-02  -7.5406683513954811e-02 0.0000000000000000e+00 -6.9795254297317103e-02  -6.3556255141502010e-02 0.0000000000000000e+00 -8.0399724582177770e-02  -6.3679840616330946e-02 0.0000000000000000e+00 -9.5927851477978693e-02  -1.2664511384865811e-02 0.0000000000000000e+00 -1.1956813185376653e-02  -1.0984540073885654e-01 0.0000000000000000e+00 -1.0558553380317692e-01  -1.0337370658183152e-01 0.0000000000000000e+00 -8.5130535982810035e-02  -8.9712329349715070e-02 0.0000000000000000e+00 -4.5531083539537810e-02  -1.0488274595669149e-01 0.0000000000000000e+00 -5.3500488313634048e-02  -1.1865040853686130e-01 0.0000000000000000e+00 -6.1884257590575212e-02  -7.8740253418539935e-02 0.0000000000000000e+00 -1.2608719244517105e-01  -1.3434114438775302e-01 0.0000000000000000e+00 -6.7310343267031530e-02  -9.1418354868353646e-02 0.0000000000000000e+00 -6.3267157752395331e-02  -1.3702524941869085e-02 0.0000000000000000e+00 -1.5613728131968402e-01  -1.5275924780615185e-01 0.0000000000000000e+00 -1.5164118065432428e-02  -3.9212697087891060e-02 0.0000000000000000e+00 -4.1157067393235040e-02  -1.3441081995553768e-02 -7.0252461188326260e-02 -1.4876873302629265e-01  -1.5164711175440358e-02 -8.4240803250668572e-02 -1.4114425640476139e-01  -1.5943353626050721e-01 -1.2409243947717322e-02 -4.0931347834036638e-02  -4.2731855790315125e-02 -6.8886944326238278e-02 -1.4379278807953100e-01  -5.7761912163883725e-02 -7.6602494169192015e-02 -1.3432543085118431e-01  -4.1616463062788808e-02 -8.5810597313513454e-02 -1.3473109282904855e-01  -5.5821430276237947e-02 -5.7283644493037675e-02 -1.4439659970263799e-01  -6.8129088713826599e-02 -1.1415160022153882e-01 -9.7854731369948697e-02  -8.3374094438415772e-02 -9.9083490792341730e-02 -1.0236717898154973e-01  -8.3417245576016014e-02 -1.1141039985830144e-01 -8.8753226388554915e-02  -9.4286099523578998e-02 -1.0038068585088541e-01 -9.1004474755226328e-02  -3.7398673946244139e-02 -5.2668186544608912e-02 -1.5190583472369087e-01  -2.7366620304382305e-02 -7.8630694622765507e-02 -1.4253535836114736e-01  -2.7345656804787229e-02 -6.4307387847275840e-02 -1.4954886664466344e-01  -8.2756901111504300e-02 -3.7596100621005692e-02 -1.3778971494554679e-01  -7.2883063756380789e-02 -5.0657885811703655e-02 -1.3917555026611009e-01  -6.7008595564628237e-02 -4.0695112659636802e-02 -1.4526490309038223e-01  -1.0229157227674938e-01 -1.2299316601113018e-01 -4.0710390467740394e-02  -1.0361385621472129e-01 -1.1788048171418097e-01 -5.1152403268835120e-02  -1.1077889566027366e-01 -1.1474870992499595e-01 -4.2531986875392114e-02  -8.5108495761746727e-02 -5.1075500942667676e-02 -1.3189362694456644e-01  -1.4856134525743922e-01 -7.0813650808511916e-02 -1.2772645382414356e-02  -1.5487375056587413e-01 -5.5496628701537230e-02 -1.3508946315063870e-02  -3.9009532583162677e-02 -1.6007366661122749e-01 -1.0142822158782740e-02  -4.9410643538235072e-02 -1.5651031189594825e-01 -1.7640695115175537e-02  -5.1197675702205285e-02 -3.9863377138731192e-02 -1.5178203539046958e-01  -7.4000035478587273e-02 -2.9243986606593438e-02 -1.4462770300223976e-01  -8.6931148168381878e-02 -1.7460153641333413e-02 -1.3923508185740555e-01  -6.9337942840532990e-02 -1.4889902804572360e-02 -1.4906052429627759e-01  -1.2584731875850727e-01 -9.6461474128032285e-02 -4.5888192976507702e-02  -1.2874012883561792e-01 -9.8535451515422534e-02 -3.1064684669432352e-02  -1.1992138028809055e-01 -1.0736744759620484e-01 -3.6596306761063881e-02  -1.3500633184799907e-01 -8.7438641271886941e-02 -3.7093281115949575e-02  -1.3707507710082133e-02 -3.1728540959959556e-02 -1.6141159633232932e-01  -1.5530481327470872e-02 -1.2591095440696500e-02 -1.6385591901043961e-01  -2.9060139569475233e-02 -1.9757669477965596e-02 -1.6128710332384244e-01  -9.2044443959473060e-02 -6.0049994119124345e-02 -1.2316594015441119e-01  -7.3553644257004155e-02 -6.4577094781266858e-02 -1.3291926650108363e-01  -1.3305097925936665e-01 -8.1300569982829113e-02 -5.4181747897940551e-02  -1.2126766693095578e-01 -9.2844509107707446e-02 -6.2625974129497719e-02  -1.0605857659449185e-01 -4.7938395986903061e-02 -1.1705405227322410e-01  -1.1604801004785045e-01 -5.0557472146457748e-02 -1.0594781657332215e-01  -1.0465645731715385e-01 -6.2228894787206529e-02 -1.1145709127180688e-01  -6.0275286199762808e-02 -2.7322366526441468e-02 -1.5122389482668805e-01  -9.8427377235742172e-02 -8.9486132751075531e-02 -9.7735832305464398e-02  -9.0555106200818955e-02 -8.3951025326861911e-02 -1.0954502811138141e-01  -9.7731936597122482e-02 -1.0671311951678152e-01 -7.9428156776941053e-02  -3.1010435926742082e-02 -3.6966057444805411e-02 -1.5786074329318339e-01  -1.6907294192415302e-02 -5.1055342320029271e-02 -1.5606286839384872e-01  -3.8535547238281079e-02 -1.0710222601998042e-02 -1.6015276609256743e-01  -8.0672851926988878e-02 -1.4319651836952307e-01 -1.5325349528649435e-02  -9.4797633393641778e-02 -1.3442934881666624e-01 -1.3800728082591493e-02  -1.5379654788943459e-01 -1.3849513331341795e-02 -5.8336046249020272e-02  -1.5701142117213626e-01 -2.6260978905913734e-02 -4.3657087311495833e-02  -9.0045977363960000e-02 -1.1745548106662541e-01 -7.3102376288642940e-02  -1.4982210681187813e-01 -6.3847764691462500e-02 -2.6925341615911008e-02  -1.4699734734153674e-01 -2.1115966705235842e-02 -7.2071762342364329e-02  -1.5015988158239435e-01 -3.2264956011312663e-02 -6.0491252447283074e-02  -8.1041382218834557e-02 -7.6568888829736503e-02 -1.2172700111092401e-01  -7.9571703825206827e-02 -8.9119365794436800e-02 -1.1390335936839581e-01  -6.9030220870774622e-02 -8.5397217812076223e-02 -1.2324767321334877e-01  -1.2126766410221566e-01 -1.5704304895401699e-02 -1.1088644953300970e-01  -1.3334807140176050e-01 -1.6034423970153189e-02 -9.5966663934654070e-02  -4.2940601944777806e-02 -2.4362063536699830e-02 -1.5751484653986114e-01  -5.3883638532572907e-02 -1.2627162251634017e-02 -1.5551735393036165e-01  -7.5774834840813751e-02 -1.2254582124463041e-01 -8.0551816724120415e-02  -1.0112350470728841e-01 -1.1333260760564540e-01 -6.4636071800057565e-02  -1.1034338002220044e-01 -1.0055941614286777e-01 -7.0428507217589087e-02  -1.1518102366528651e-01 -8.9508104286511597e-02 -7.7264030879576853e-02  -1.2462006183179548e-01 -7.9958715316228918e-02 -7.2968849729397864e-02  -1.2730284613014415e-02 -1.1362905730485162e-01 -1.1905714356541479e-01  -1.6953369630059428e-02 -1.2411021498960836e-01 -1.0750513134002740e-01  -1.5888798526981335e-01 -3.4532514342720588e-02 -2.8466255101956221e-02  -1.6219747243681101e-01 -2.7092426908150825e-02 -1.4363930975715304e-02  -1.5926644707988624e-01 -4.1138192594361578e-02 -1.3789195118811796e-02  -1.6134158953148367e-01 -1.8684608606148075e-02 -2.9463399473309983e-02  -1.2607209953155499e-01 -5.1589865022952666e-02 -9.3233280722594555e-02  -1.1541178680110828e-01 -6.4667750258532691e-02 -9.8723181427260415e-02  -1.5371009299217955e-01 -4.2030020423394217e-02 -4.3067902415568800e-02  -1.1536389425143919e-02 -1.3351274373828156e-01 -9.6382061053274751e-02  -2.8642157663735363e-02 -1.3310955661870691e-01 -9.3324630203448805e-02  -5.6029335881408106e-02 -9.2769517580294211e-02 -1.2450813363273386e-01  -1.1287366375260699e-01 -7.9980961895865607e-02 -9.0059145527503257e-02  -1.0267390133978957e-01 -7.5843859802205774e-02 -1.0466061596569148e-01  -1.8757799790270060e-02 -1.4201326336926096e-01 -8.2026786899113718e-02  -3.6798410033824308e-02 -1.4036312638582391e-01 -7.8689378118747433e-02  -2.7805224637154295e-02 -1.4832217464817055e-01 -6.6897902888962177e-02  -1.0529177206900074e-01 -9.4816278992147618e-02 -8.4685313496143846e-02  -9.4216999505041588e-02 -7.2504918133399515e-02 -1.1451756832415477e-01  -1.5507015640135877e-01 -4.9116683291323078e-02 -2.8088782117039031e-02  -1.9807730700013074e-02 -1.5537116860799341e-01 -5.2109078132604653e-02  -3.6886199123896506e-02 -1.5250928685891080e-01 -5.1266142577688488e-02  -2.9612223646099944e-02 -1.5803107105607270e-01 -3.7378791842588854e-02  -4.8686907275361214e-02 -1.5367921526394718e-01 -3.5497976844904924e-02  -4.3656242298305142e-02 -1.3140564872731925e-01 -8.9859433638946523e-02  -3.5958328915630847e-02 -1.2359256511023702e-01 -1.0334341661056927e-01  -1.4266159141255028e-01 -7.8530420018350547e-02 -2.6995449357436238e-02  -1.4249633950337381e-01 -7.3094725168789815e-02 -4.0001488572358856e-02  -1.3974529980726730e-01 -2.5006027379490606e-02 -8.4228802786687831e-02  -1.4261641276657619e-01 -3.5253555607336347e-02 -7.5273572374342401e-02  -1.3346325427894867e-01 -3.5558455312775357e-02 -9.0396160941699139e-02  -1.3632650284926820e-01 -5.1566619800899965e-02 -7.7487000743940826e-02  -1.3480801470257761e-01 -9.2666498132863720e-02 -2.2091369503134176e-02  -1.4087447592382760e-01 -8.5156877441286624e-02 -1.2286133154158791e-02  -1.3376028941141616e-01 -9.6195358574199336e-02 -1.0151950878776300e-02  -6.8835091291164677e-02 -9.8811771064214154e-02 -1.1289671677752233e-01  -1.4939423800424323e-01 -5.7099506413444120e-02 -4.0856023565622686e-02  -1.2583811890866706e-01 -1.0494606621839277e-01 -1.9986181181453923e-02  -5.9245967617540432e-02 -1.5367472381650102e-01 -1.1052669252904367e-02  -1.4130050476811887e-01 -6.7649742218493722e-02 -5.2018679917235924e-02  -4.2871925492881123e-02 -1.0018718931750177e-01 -1.2398548625366188e-01  -2.7276421207307746e-02 -9.3817029971559482e-02 -1.3305069455309051e-01  -3.1686003413256725e-02 -1.0525826599110882e-01 -1.2314550098426456e-01  -4.2882115797810157e-02 -1.1387774797790337e-01 -1.1153870851972737e-01  -2.6898712877240112e-02 -1.1462873798504326e-01 -1.1569258017091837e-01  -1.1722633324854384e-01 -3.4051426387617427e-02 -1.1111530203227409e-01  -1.1185622516068049e-01 -2.2608271253182669e-02 -1.1927023148885778e-01  -1.4729196299253020e-01 -5.0711414366905141e-02 -5.4605866920803978e-02  -1.0137548786762478e-01 -1.6135008070990903e-02 -1.2927134616192376e-01  -1.0494127163765334e-01 -3.2703757954814797e-02 -1.2315047700485980e-01  -1.1014290922975420e-01 -1.0169091173002784e-02 -1.2253025957626403e-01  -1.4400241432634608e-01 -4.4977119032630512e-02 -6.6997687500017736e-02  -1.4127095974839679e-01 -5.7795560461615665e-02 -6.2853678683966602e-02  -8.6561688999776149e-02 -1.3790951067371832e-01 -2.7133383634616037e-02  -9.2881413794669493e-02 -1.3085977688485670e-01 -3.8689924174971017e-02  -9.8969362457944535e-02 -1.2943152724123430e-01 -2.6471979956637481e-02  -8.1862921532785002e-02 -1.3634685597290896e-01 -4.4227219023899818e-02  -8.0799519107340761e-02 -1.269227