<?xml version="1.0"?>
<VTKFile type="UnstructuredGrid"  version="0.1"  >
<UnstructuredGrid>
<Piece  NumberOfPoints="597" NumberOfCells="2124">
<Points>
<DataArray  type="Float64"  NumberOfComponents="3"  format="ascii">0 0 0  1 0 0  0 1 0  0 0 1  0.09999999999981467 0 0  0.1999999999995579 0 0  0.2999999999992664 0 0  0.3999999999989749 0 0  0.4999999999986943 0 0  0.5999999999989468 0 0  0.69999999999921 0 0  0.7999999999994734 0 0  0.8999999999997368 0 0  0 0.09999999999981467 0  0 0.1999999999995579 0  0 0.2999999999992664 0  0 0.3999999999989749 0  0 0.4999999999986943 0  0 0.5999999999989468 0  0 0.69999999999921 0  0 0.7999999999994734 0  0 0.8999999999997368 0  0 0 0.09999999999981467  0 0 0.1999999999995579  0 0 0.2999999999992664  0 0 0.3999999999989749  0 0 0.4999999999986943  0 0 0.5999999999989468  0 0 0.69999999999921  0 0 0.7999999999994734  0 0 0.8999999999997368  0.9951847266502585 0.09801714055230534 0  0.9807852803038259 0.1950903225158687 0  0.9569403355024331 0.2902846780119318 0  0.9238795320817892 0.3826834334019886 0  0.8819212636904032 0.4713967380569389 0  0.8314696113679687 0.5555702344182949 0  0.7730104520841969 0.6343932857215511 0  0.7071067795733449 0.7071067827997501 0  0.634393282646958 0.7730104546074502 0  0.5555702316245595 0.8314696132346829 0  0.471396735522105 0.8819212650453002 0  0.3826834312318057 0.9238795329807084 0  0.2902846763682919 0.9569403360010258 0  0.1950903214145686 0.980785280522888 0  0.0980171400302339 0.995184726701678 0  0.9951847266502585 0 0.09801714055230534  0.9807852803038259 0 0.1950903225158687  0.9569403355024331 0 0.2902846780119318  0.9238795320817892 0 0.3826834334019886  0.8819212636904032 0 0.4713967380569389  0.8314696113679687 0 0.5555702344182949  0.7730104520841969 0 0.6343932857215511  0.7071067795733449 0 0.7071067827997501  0.634393282646958 0 0.7730104546074502  0.5555702316245595 0 0.8314696132346829  0.471396735522105 0 0.8819212650453002  0.3826834312318057 0 0.9238795329807084  0.2902846763682919 0 0.9569403360010258  0.1950903214145686 0 0.980785280522888  0.0980171400302339 0 0.995184726701678  0 0.9951847266502585 0.09801714055230534  0 0.9807852803038259 0.1950903225158687  0 0.9569403355024331 0.2902846780119318  0 0.9238795320817892 0.3826834334019886  0 0.8819212636904032 0.4713967380569389  0 0.8314696113679687 0.5555702344182949  0 0.7730104520841969 0.6343932857215511  0 0.7071067795733449 0.7071067827997501  0 0.634393282646958 0.7730104546074502  0 0.5555702316245595 0.8314696132346829  0 0.471396735522105 0.8819212650453002  0 0.3826834312318057 0.9238795329807084  0 0.2902846763682919 0.9569403360010258  0 0.1950903214145686 0.980785280522888  0 0.0980171400302339 0.995184726701678  0.09240154966779951 0 0.3658235692199516  0.07916357488785433 0 0.4469199030523527  0.1536813483092524 0 0.4301465381022301  0.2555379022644893 0 0.09556049568595243  0.1864593291765566 0 0.2034979771761179  0.301651764011142 0 0.1939053326038485  0.1881720785854029 0 0.3302588474155368  0.08403438330774521 0 0.6437268466185475  0.09138388892861184 0 0.5324072873297468  0.1930859140709486 0 0.7878139522981464  0.2165176696171426 0 0.900824597607195  0.292033522918994 0 0.8485491372975176  0.8037370491763215 0 0.0819245024222376  0.13014171782822 0 0.8868491929551598  0.08390174260734276 0 0.8253161934654943  0.0912526277304111 0 0.7448765232291942  0.8893622411880446 0 0.270275215225845  0.8593018882538136 0 0.1801969264281539  0.8024703672696746 0 0.2475353432181931  0.3476914857890963 0 0.4125368919261175  0.2997235777995208 0 0.3096876237048341  0.2490386282757974 0 0.412527605219857  0.4554126154120848 0 0.2518749964366375  0.39715257119151 0 0.3258159451822259  0.4883877361055989 0 0.3266984434363212  0.08966539318254355 0 0.2701713986717769  0.08377502767602918 0 0.164580120521203  0.3869558528229924 0 0.8037364723405749  0.1791913905804899 0 0.6945879747883159  0.1628348997531483 0 0.5951991143072877  0.2434219731662663 0 0.6106761106298939  0.3204481765543245 0 0.6201302437713152  0.2846206283417919 0 0.7159219267704837  0.3832252637688779 0 0.6893291551637116  0.1561812521325313 0 0.09527745928338882  0.8122499659106144 0 0.3273472587872134  0.2026260329838435 0 0.5147603927306801  0.3051207491780334 0 0.5196560474248884  0.5886190882535927 0 0.5879547877726188  0.5628286668856228 0 0.4841066442899339  0.4793970684942127 0 0.5419440173923771  0.4015076433379883 0 0.1595345792024606  0.4550663848726773 0 0.08400234057127416  0.3574412370957718 0 0.08514557536940835  0.4777735346904641 0 0.6420237002140541  0.5886050303809575 0 0.712791733722679  0.7032448955145116 0 0.5547060123784804  0.3710082806848816 0 0.2384994559961529  0.6343947712920404 0 0.1960314230465952  0.7205780420889929 0 0.2811987241304542  0.745939430962431 0 0.1834190974026157  0.6797060130425652 0 0.1027709852058109  0.5617353506566283 0 0.09368054426051139  0.5099863318045709 0 0.1736146479983669  0.767516113391133 0 0.4796577434100839  0.6547738563668709 0 0.4463662193850245  0.4595209371514753 0 0.4253249285837939  0.3873123962753185 0 0.4899626124422253  0.3876250349852705 0 0.5839247669697213  0.07755778095112512 0 0.07322480571131515  0.6662618639536104 0 0.6404224526940073  0.6281317226641706 0 0.5172795154653362  0.5467991787548994 0 0.2775110285514451  0.6382784164401777 0 0.32558335190295  0.7209625386664502 0 0.3760300013763025  0.4777689774710401 0 0.7650512433185178  0.8150026845526732 0 0.4083495007681245  0.5566757769165783 0 0.3852531587967231  0.08307535298787436 0 0.9466352209487393  0.9264479164039098 0 0.09196696687313166  0.2397696045481275 0 0.2516617606603849  0.08142379610690136 0.4255946222877561 0.9012432429190713  0.09186671735860186 0.5103340042487068 0.8550553843753256  0.9658493887414453 0.07517233868428744 0.2479598309495128  0.2588669386047153 0.4173196613385269 0.8711097567802347  0.349931687668115 0.4640670731596268 0.8137503091088829  0.2521091443082024 0.5198490772623717 0.8162094806026494  0.3381706165708041 0.3470207631890471 0.8747669541105296  0.4127313919422814 0.6915412096022421 0.5928098797483512  0.505094034203222 0.6002477622197614 0.6201472732847281  0.5053541985510116 0.6749299798537994 0.5376677936248502  0.5711974176563547 0.6081084457949028 0.5513053856218164  0.2265606352222516 0.3190644824037021 0.9202543858282597  0.1657801920411619 0.4763492767397394 0.8634861287110075  0.1656568208377873 0.3895779149708851 0.9059728836322062  0.501344556404584 0.2277556352228774 0.8347340932223356  0.4415367071350051 0.3068779784495727 0.8431318061816198  0.4059460944519277 0.2465220798785426 0.8800196773547647  0.6196876017566089 0.7450935593761555 0.2466229186537899  0.627698728320387 0.714123017011242 0.3098751733194038  0.6711018023358704 0.69515091935471 0.2576578549585624  0.5155953815884997 0.3094099022200982 0.7990162169147497  0.899989132227882 0.4289906012996104 0.07737328911389559  0.9382293875188548 0.3361973257557999 0.08183504475860598  0.2363183186651487 0.9697312279355392 0.06144101097726593  0.2993323950146074 0.9481462475789452 0.106858834434898  0.3101615066201264 0.2414838162804179 0.9195028038487859  0.4482922838801319 0.1771577048152243 0.8761559084079369  0.5266326972169642 0.1057746683003005 0.8434866458741044  0.4200451415729211 0.09020206018716082 0.9030092288448531  0.7623891105001969 0.5843698709159578 0.2779832695620105  0.7799115838824263 0.596929282445646 0.1881843592994147  0.7264879983305693 0.6504346235700518 0.2216979673856474  0.8178732076005444 0.5297083005156807 0.2247054353013872  0.08303734348179403 0.1922053315992417 0.9778353184930026  0.09408269694107538 0.07627092328721888 0.9926385003601306  0.1760515877647063 0.1196852712822077 0.9770779264130525  0.5576143975194612 0.3637809431371279 0.7461431558952143  0.4455986119305068 0.3912097319557027 0.8052309126385754  0.8060332204752099 0.4925189261569118 0.3282309474556054  0.7346451337886817 0.5624574787189985 0.379391765901261  0.642508165502269 0.2904084282097414 0.7091164940174894  0.7030254185009037 0.306273768786429 0.6418345888895255  0.6340141384684502 0.3769833468372913 0.6752108029567235  0.365152486570974 0.1655128603952953 0.9161163433728284  0.5962792236506059 0.542109883053058 0.5920877993497508  0.5485896415631504 0.5085733599282969 0.6636283167111371  0.5920678220815722 0.6464708649476155 0.4811768020483384  0.1878625042731283 0.2239323962641036 0.9563273296270713  0.1024217313722561 0.3092935774102874 0.9454349644028699  0.2334505071908325 0.06487815783086033 0.9702018786463037  0.4887206245964966 0.8674866792832123 0.09283863613924619  0.5742874233407752 0.8143734795796027 0.08360497084518105  0.9317006522490203 0.08389294215323394 0.3534060962343804  0.951181716421189 0.1590863374964037 0.2644709427669156  0.5455072387620422 0.7115493400103802 0.4428536882413925  0.9076276342048921 0.3867895805147213 0.1631131448807132  0.8905082493452895 0.127913990281725 0.4366154703376809  0.9096700297655037 0.1954608695184058 0.3664634844476816  0.4909557921631998 0.4638599224188366 0.7374255098075979  0.4820557633059458 0.5398846258057163 0.6900339353119844  0.4181956098394346 0.5173376920524271 0.7466419116905315  0.7346402167242096 0.09513558808181954 0.67175365414096  0.8078263850243458 0.09713596463829366 0.5813614504181416  0.2601336813274003 0.1475738587985683 0.954228706358363  0.3264256065230105 0.07648882390671821 0.9421230191559125  0.4590556119879899 0.7423895417623142 0.4879812633537003  0.6126112913498895 0.686574629053208 0.3915644065170771  0.6684671903139626 0.6091898762120843 0.4266606499250449  0.6977699223891808 0.542245960309553 0.4680667195357594  0.7549550374165268 0.4843931863016896 0.4420476586793638  0.07712060794257616 0.6883652307079324 0.7212528828247291  0.1027005936763692 0.7518617879958691 0.6512729380299598  0.9625479306552708 0.2091983633587219 0.1724457188778192  0.9825939555666527 0.1641265719497667 0.08701486576382911  0.964839163020035 0.2492141217550538 0.08353269432177644  0.97740960683
[...]
<PointData  Vectors="Solid displacement [m]"> 
<DataArray  type="Float64"  Name="Solid displacement [m]"  NumberOfComponents="3" format="ascii">0.0000000000000000e+00 0.0000000000000000e+00 0.0000000000000000e+00  -1.0816434384507922e-01 0.0000000000000000e+00 0.0000000000000000e+00  0.0000000000000000e+00 -1.0818215492616444e-01 0.0000000000000000e+00  0.0000000000000000e+00 0.0000000000000000e+00 -1.0815019199521061e-01  -6.6225147678198853e-03 0.0000000000000000e+00 0.0000000000000000e+00  -1.3424001837171214e-02 0.0000000000000000e+00 0.0000000000000000e+00  -2.0558566250828709e-02 0.0000000000000000e+00 0.0000000000000000e+00  -2.8274753023162659e-02 0.0000000000000000e+00 0.0000000000000000e+00  -3.6915254461735193e-02 0.0000000000000000e+00 0.0000000000000000e+00  -4.6833669541397616e-02 0.0000000000000000e+00 0.0000000000000000e+00  -5.8499860170455650e-02 0.0000000000000000e+00 0.0000000000000000e+00  -7.2404363547964160e-02 0.0000000000000000e+00 0.0000000000000000e+00  -8.8920750453444344e-02 0.0000000000000000e+00 0.0000000000000000e+00  0.0000000000000000e+00 -6.6231846164167656e-03 0.0000000000000000e+00  0.0000000000000000e+00 -1.3409388376057946e-02 0.0000000000000000e+00  0.0000000000000000e+00 -2.0548033958575466e-02 0.0000000000000000e+00  0.0000000000000000e+00 -2.8288907635622550e-02 0.0000000000000000e+00  0.0000000000000000e+00 -3.6924277105527877e-02 0.0000000000000000e+00  0.0000000000000000e+00 -4.6846732074660689e-02 0.0000000000000000e+00  0.0000000000000000e+00 -5.8504985901103042e-02 0.0000000000000000e+00  0.0000000000000000e+00 -7.2410426836204522e-02 0.0000000000000000e+00  0.0000000000000000e+00 -8.8950459857025654e-02 0.0000000000000000e+00  0.0000000000000000e+00 0.0000000000000000e+00 -6.6198551496500259e-03  0.0000000000000000e+00 0.0000000000000000e+00 -1.3414827965363970e-02  0.0000000000000000e+00 0.0000000000000000e+00 -2.0549268548544625e-02  0.0000000000000000e+00 0.0000000000000000e+00 -2.8270899754008556e-02  0.0000000000000000e+00 0.0000000000000000e+00 -3.6905295661719809e-02  0.0000000000000000e+00 0.0000000000000000e+00 -4.6815973689764326e-02  0.0000000000000000e+00 0.0000000000000000e+00 -5.8484684197750235e-02  0.0000000000000000e+00 0.0000000000000000e+00 -7.2392017505047812e-02  0.0000000000000000e+00 0.0000000000000000e+00 -8.8915238940794131e-02  -1.0764045731822776e-01 -1.0610656219326994e-02 0.0000000000000000e+00  -1.0608709261451439e-01 -2.1106086681066911e-02 0.0000000000000000e+00  -1.0350064783407238e-01 -3.1403763361216655e-02 0.0000000000000000e+00  -9.9922982939711982e-02 -4.1386662696496976e-02 0.0000000000000000e+00  -9.5392918799974982e-02 -5.0972812566153096e-02 0.0000000000000000e+00  -8.9952769320910578e-02 -6.0077181696760941e-02 0.0000000000000000e+00  -8.3604755320618146e-02 -6.8636846879375213e-02 0.0000000000000000e+00  -7.6489735863044014e-02 -7.6494680049504452e-02 0.0000000000000000e+00  -6.8614881660413657e-02 -8.3626513874970915e-02 0.0000000000000000e+00  -6.0093832024035627e-02 -8.9957298843943864e-02 0.0000000000000000e+00  -5.1033461282205039e-02 -9.5392949842625654e-02 0.0000000000000000e+00  -4.1386848871273238e-02 -9.9957251025492563e-02 0.0000000000000000e+00  -3.1410137336208378e-02 -1.0351286092640967e-01 0.0000000000000000e+00  -2.1100930763626322e-02 -1.0610151255255786e-01 0.0000000000000000e+00  -1.0620482742409995e-02 -1.0766953725113393e-01 0.0000000000000000e+00  -1.0765279084528301e-01 0.0000000000000000e+00 -1.0603583571971850e-02  -1.0610683958975815e-01 0.0000000000000000e+00 -2.1072841747384469e-02  -1.0351123266328313e-01 0.0000000000000000e+00 -3.1419513802426947e-02  -9.9958475958784113e-02 0.0000000000000000e+00 -4.1369167064967453e-02  -9.5398839433762761e-02 0.0000000000000000e+00 -5.1019825789363989e-02  -8.9926884342290597e-02 0.0000000000000000e+00 -6.0134170275414303e-02  -8.3605024683664514e-02 0.0000000000000000e+00 -6.8618531916502024e-02  -7.6512303195989742e-02 0.0000000000000000e+00 -7.6455315550628580e-02  -6.8593618209415855e-02 0.0000000000000000e+00 -8.3650031677555511e-02  -6.0078003435697407e-02 0.0000000000000000e+00 -8.9935156717180012e-02  -5.1011019503951982e-02 0.0000000000000000e+00 -9.5384124689948391e-02  -4.1407837372706258e-02 0.0000000000000000e+00 -9.9946924538946505e-02  -3.1382272898781219e-02 0.0000000000000000e+00 -1.0352385874718935e-01  -2.1028594971682673e-02 0.0000000000000000e+00 -1.0608634736047978e-01  -1.0602534760301385e-02 0.0000000000000000e+00 -1.0763881792956713e-01  0.0000000000000000e+00 -1.0765679027637391e-01 -1.0661824049041950e-02  0.0000000000000000e+00 -1.0609497046751626e-01 -2.1116529298977633e-02  0.0000000000000000e+00 -1.0348759615674268e-01 -3.1467466941691211e-02  0.0000000000000000e+00 -9.9933238676177552e-02 -4.1397177991949460e-02  0.0000000000000000e+00 -9.5377999940673253e-02 -5.0998593341941914e-02  0.0000000000000000e+00 -8.9969884589678431e-02 -6.0042188871494227e-02  0.0000000000000000e+00 -8.3603759498992888e-02 -6.8643998459632441e-02  0.0000000000000000e+00 -7.6501511520457866e-02 -7.6462440048509814e-02  0.0000000000000000e+00 -6.8615071125123911e-02 -8.3600933014987666e-02  0.0000000000000000e+00 -6.0069875672966878e-02 -8.9944352190528265e-02  0.0000000000000000e+00 -5.0987393334346244e-02 -9.5396293827400933e-02  0.0000000000000000e+00 -4.1353958610343425e-02 -9.9955165770288165e-02  0.0000000000000000e+00 -3.1372450825105327e-02 -1.0351700730752790e-01  0.0000000000000000e+00 -2.1103643091578819e-02 -1.0607879275689547e-01  0.0000000000000000e+00 -1.0635218001537950e-02 -1.0763094589231742e-01  -6.4896210736095170e-03 0.0000000000000000e+00 -2.5651989238240695e-02  -5.7361863481883027e-03 0.0000000000000000e+00 -3.2289852933440832e-02  -1.1124633163309168e-02 0.0000000000000000e+00 -3.1121632219776939e-02  -1.7402054978817930e-02 0.0000000000000000e+00 -6.5040866016223345e-03  -1.2708821447936353e-02 0.0000000000000000e+00 -1.3859090728306139e-02  -2.1030581381341253e-02 0.0000000000000000e+00 -1.3510477199933009e-02  -1.3210705495178192e-02 0.0000000000000000e+00 -2.3187164736233123e-02  -6.7854353970235922e-03 0.0000000000000000e+00 -5.1870233265926054e-02  -6.9007197176241342e-03 0.0000000000000000e+00 -4.0118999926996551e-02  -1.7644234391522181e-02 0.0000000000000000e+00 -7.1971451319086957e-02  -2.1899167111583899e-02 0.0000000000000000e+00 -9.1158163067058373e-02  -2.8774758506834825e-02 0.0000000000000000e+00 -8.3653685398474939e-02  -7.3228606231408450e-02 0.0000000000000000e+00 -7.4614439722339651e-03  -1.2816655238986077e-02 0.0000000000000000e+00 -8.7323463209113925e-02  -7.7969082734063791e-03 0.0000000000000000e+00 -7.6598128739731097e-02  -7.9385867144766108e-03 0.0000000000000000e+00 -6.4705965448319122e-02  -9.0254923171666265e-02 0.0000000000000000e+00 -2.7431021690598863e-02  -8.3239486765629561e-02 0.0000000000000000e+00 -1.7454361814697953e-02  -7.5151273045652098e-02 0.0000000000000000e+00 -2.3184122124086402e-02  -2.6193937486257025e-02 0.0000000000000000e+00 -3.1073579360967191e-02  -2.1460212916301021e-02 0.0000000000000000e+00 -2.2162260714417042e-02  -1.8229242248723465e-02 0.0000000000000000e+00 -3.0183930284612658e-02  -3.3966497115000355e-02 0.0000000000000000e+00 -1.8791144304694574e-02  -2.9517767161342655e-02 0.0000000000000000e+00 -2.4214150237451194e-02  -3.7825726638163665e-02 0.0000000000000000e+00 -2.5290802819480745e-02  -6.1197680042543038e-03 0.0000000000000000e+00 -1.8440993847561260e-02  -5.6078294233027149e-03 0.0000000000000000e+00 -1.1010995455945598e-02  -3.7956071916674008e-02 0.0000000000000000e+00 -7.8844283204777030e-02  -1.5176358684143172e-02 0.0000000000000000e+00 -5.8801550821239716e-02  -1.2853781681133065e-02 0.0000000000000000e+00 -4.6946330187734628e-02  -1.9732779022045177e-02 0.0000000000000000e+00 -4.9494135796883797e-02  -2.6732301958151433e-02 0.0000000000000000e+00 -5.1753665397134281e-02  -2.5128493159496838e-02 0.0000000000000000e+00 -6.3203073388746159e-02  -3.4344584411827118e-02 0.0000000000000000e+00 -6.1789805627499299e-02  -1.0452453011374522e-02 0.0000000000000000e+00 -6.3735131612088405e-03  -7.8528931719558021e-02 0.0000000000000000e+00 -3.1657952785716849e-02  -1.5383288551387363e-02 0.0000000000000000e+00 -3.9077166115074627e-02  -2.3848320384071163e-02 0.0000000000000000e+00 -4.0619901147451593e-02  -5.4757479727524330e-02 0.0000000000000000e+00 -5.4700519749150696e-02  -4.8593663702011944e-02 0.0000000000000000e+00 -4.1796943923784850e-02  -4.0780916370119408e-02 0.0000000000000000e+00 -4.6110360987679323e-02  -2.8741163377100851e-02 0.0000000000000000e+00 -1.1420741990847664e-02  -3.3005986479985393e-02 0.0000000000000000e+00 -6.1020189687186191e-03  -2.4984114399402166e-02 0.0000000000000000e+00 -5.9571156199656273e-03  -4.3244500518315458e-02 0.0000000000000000e+00 -5.8121491082253784e-02  -5.9462448279457431e-02 0.0000000000000000e+00 -7.2002893196331727e-02  -6.9205323733634416e-02 0.0000000000000000e+00 -5.4602179330368407e-02  -2.6661382711626526e-02 0.0000000000000000e+00 -1.7141753717255105e-02  -5.1659609937119821e-02 0.0000000000000000e+00 -1.5966418343509727e-02  -6.3784757894727026e-02 0.0000000000000000e+00 -2.4895629467727925e-02  -6.5742209059990064e-02 0.0000000000000000e+00 -1.6163902726018496e-02  -5.6281004993055300e-02 0.0000000000000000e+00 -8.5110904341845726e-03  -4.3052034574980150e-02 0.0000000000000000e+00 -7.1818548316156597e-03  -3.8413544445110540e-02 0.0000000000000000e+00 -1.3079707436951415e-02  -7.6193017653295531e-02 0.0000000000000000e+00 -4.7610917479737239e-02  -5.8889076928852153e-02 0.0000000000000000e+00 -4.0138423823511724e-02  -3.6458601062763912e-02 0.0000000000000000e+00 -3.3746972276706498e-02  -3.0693033999327771e-02 0.0000000000000000e+00 -3.8830248811438678e-02  -3.2402115633373092e-02 0.0000000000000000e+00 -4.8834985505111748e-02  -5.1439459208928407e-03 0.0000000000000000e+00 -4.8521831011926137e-03  -6.7271870143613077e-02 0.0000000000000000e+00 -6.4670222677065597e-02  -5.7513530846131443e-02 0.0000000000000000e+00 -4.7373403624033805e-02  -4.3035857600994751e-02 0.0000000000000000e+00 -2.1837277184331993e-02  -5.4013672814258430e-02 0.0000000000000000e+00 -2.7538489976881516e-02  -6.5989715333393067e-02 0.0000000000000000e+00 -3.4415021756917269e-02  -4.7276400987797715e-02 0.0000000000000000e+00 -7.5715601043321229e-02  -8.1383816827836783e-02 0.0000000000000000e+00 -4.0778946973086504e-02  -4.5742085160835472e-02 0.0000000000000000e+00 -3.1646886211688235e-02  -8.5906689300669879e-03 0.0000000000000000e+00 -9.7889246515669479e-02  -9.4146743267661939e-02 0.0000000000000000e+00 -9.3392430654956268e-03  -1.6664523427919457e-02 0.0000000000000000e+00 -1.7475816357935312e-02  -8.8236032428367570e-03 -4.6007576234019416e-02 -9.7513219898224021e-02  -9.9392369875850213e-03 -5.5189949816012288e-02 -9.2494918428254108e-02  -1.0449628729203425e-01 -8.1512938131092505e-03 -2.6839996353781648e-02  -2.8021351304309435e-02 -4.5119713751451393e-02 -9.4191908209422290e-02  -3.7808466130126277e-02 -5.0145436330651057e-02 -8.8035329956711789e-02  -2.7292400554371918e-02 -5.6194767088922598e-02 -8.8287436529692939e-02  -3.6556493636073467e-02 -3.7542708354522718e-02 -9.4580604134073445e-02  -4.4639612954063657e-02 -7.4771144665590650e-02 -6.4109940936514911e-02  -5.4591985596072014e-02 -6.4949966601362250e-02 -6.7061416821478398e-02  -5.4628762562790097e-02 -7.3004401554931445e-02 -5.8170900507787185e-02  -6.1753185156729069e-02 -6.5777909739269544e-02 -5.9646300089055145e-02  -2.4503168746771900e-02 -3.4489464084498114e-02 -9.9522047209335954e-02  -1.7969487632652978e-02 -5.1502834885228214e-02 -9.3402496378714714e-02  -1.7938170578850967e-02 -4.2103207792908770e-02 -9.7998454459715736e-02  -5.4228937089397043e-02 -2.4639148285759450e-02 -9.0289928644168377e-02  -4.7704947735846263e-02 -3.3227220203242154e-02 -9.1188328309661365e-02  -4.3868188123125207e-02 -2.6709508575483151e-02 -9.5194466852339926e-02  -6.7033041637320490e-02 -8.0587677523088402e-02 -2.6690572377764357e-02  -6.7888890320900175e-02 -7.7222616115589365e-02 -3.3558477690628412e-02  -7.2597065490592583e-02 -7.5168576327612854e-02 -2.7877499739774970e-02  -5.5747272392033337e-02 -3.3488762504427866e-02 -8.6430109312279124e-02  -9.7336825624217541e-02 -4.6386763440367532e-02 -8.3908544288140239e-03  -1.0147164391669193e-01 -3.6371089361231443e-02 -8.8651623071900366e-03  -2.5574243257879072e-02 -1.0490879551261924e-01 -6.6630815553940384e-03  -3.2384805394818875e-02 -1.0258222623420143e-01 -1.1613524169613223e-02  -3.3507617477648702e-02 -2.6156540739206757e-02 -9.9453199115134297e-02  -4.8501713475862462e-02 -1.9171059075043094e-02 -9.4794262665846701e-02  -5.6965006771557719e-02 -1.1430488862821378e-02 -9.1262690365391877e-02  -4.5458445523104629e-02 -9.7572686069983088e-03 -9.7703024469895428e-02  -8.2447170804203621e-02 -6.3170527218039854e-02 -3.0117615229294115e-02  -8.4353611072380832e-02 -6.4561775822246412e-02 -2.0390222625068476e-02  -7.8576096082254548e-02 -7.0338324616824044e-02 -2.3998270155758925e-02  -8.8464363615817179e-02 -5.7268887350527882e-02 -2.4347249911486627e-02  -8.9976139737419584e-03 -2.0798704901581137e-02 -1.0574747854751777e-01  -1.0176074279477608e-02 -8.2740899628183043e-03 -1.0735944302385494e-01  -1.8997567416663294e-02 -1.2969230976967448e-02 -1.0567416862849542e-01  -6.0301506192095698e-02 -3.9356831806929969e-02 -8.0718204857794684e-02  -4.8164753859121834e-02 -4.2303181585699803e-02 -8.7111518879266922e-02  -8.7140501009349558e-02 -5.3261526146033682e-02 -3.5522188110923052e-02  -7.9454637390266480e-02 -6.0805537117625603e-02 -4.1017952618890442e-02  -6.9491717462578359e-02 -3.1413596105389602e-02 -7.6682177149718006e-02  -7.6025192161571484e-02 -3.3137509353546056e-02 -6.9403558493244186e-02  -6.8584024112676140e-02 -4.0761384821398197e-02 -7.3019337777564308e-02  -3.9459331155455621e-02 -1.7926553024240007e-02 -9.9107615657152009e-02  -6.4506395117681165e-02 -5.8626020048083115e-02 -6.4031495414413359e-02  -5.9348992747013073e-02 -5.5039109142050659e-02 -7.1787541460636817e-02  -6.4040850506248775e-02 -6.9932071570202328e-02 -5.2051512200999794e-02  -2.0302667645391119e-02 -2.4242893342303992e-02 -1.0340950976124080e-01  -1.1098170949439675e-02 -3.3429822207247883e-02 -1.0225892078491886e-01  -2.5220579978957599e-02 -7.0358811395058131e-03 -1.0496113408973164e-01  -5.2883541328251668e-02 -9.3862622987717706e-02 -1.0062885623956918e-02  -6.2145343906364635e-02 -8.8104126308198263e-02 -9.0455514656752507e-03  -1.0079147071413007e-01 -9.1190623671623117e-03 -3.8208603809341643e-02  -1.0287110301609832e-01 -1.7229608334798155e-02 -2.8633779902855244e-02  -5.8988349770671245e-02 -7.6959568117749455e-02 -4.7906205904746431e-02  -9.8153889373089429e-02 -4.1833092142564941e-02 -1.7648458778316594e-02  -9.6329022975493020e-02 -1.3870638825260297e-02 -4.7208778474880989e-02  -9.8395409574850726e-02 -2.1147206209209478e-02 -3.9609253913842103e-02  -5.3108084674369616e-02 -5.0149984148048068e-02 -7.9795729765857984e-02  -5.2119066705200050e-02 -5.8419975714161472e-02 -7.4629569181549699e-02  -4.5202783527746170e-02 -5.5967489443490087e-02 -8.0766128709236509e-02  -7.9473816853784476e-02 -1.0295343151563649e-02 -7.2646487071355834e-02  -8.7373954092967596e-02 -1.0512084623779750e-02 -6.2911787829123308e-02  -2.8123116059800685e-02 -1.6012335342645630e-02 -1.0319372163251557e-01  -3.5297491728867834e-02 -8.3031047347128309e-03 -1.0192368070907071e-01  -4.9610475222217280e-02 -8.0287121611787277e-02 -5.2805789611619545e-02  -6.6264252251768907e-02 -7.4232613987153959e-02 -4.2358108049420619e-02  -7.2291771824672738e-02 -6.5886390591267469e-02 -4.6117333274261603e-02  -7.5483543494119898e-02 -5.8610441604226154e-02 -5.0620459343337941e-02  -8.1642846442682548e-02 -5.2362996018691807e-02 -4.7797139458147481e-02  -8.3298304117074874e-03 -7.4467070990989245e-02 -7.8017307853364359e-02  -1.1119245526870157e-02 -8.1338995503006190e-02 -7.0437495139069772e-02  -1.0410366583947459e-01 -2.2628945929046129e-02 -1.8663529707690026e-02  -1.0629003035005992e-01 -1.7751145360106219e-02 -9.4184119862487196e-03  -1.0435208655210508e-01 -2.6962886263491102e-02 -9.0458568252738455e-03  -1.0572725396991722e-01 -1.2254830237762389e-02 -1.9299272919330469e-02  -8.2591393764535573e-02 -3.3826363548670003e-02 -6.1054160294492121e-02  -7.5627587033733817e-02 -4.2377657647002603e-02 -6.4653976917191575e-02  -1.0072137490394492e-01 -2.7539053473708962e-02 -2.8233691477338729e-02  -7.5856879823873050e-03 -8.7510036685197842e-02 -6.3149662339974447e-02  -1.8758134957053276e-02 -8.7227975744650812e-02 -6.1148479443180435e-02  -3.6710377703346432e-02 -6.0786260473634737e-02 -8.1591625391719033e-02  -7.3976273322117134e-02 -5.2370000222091311e-02 -5.8994922334072837e-02  -6.7303881224166515e-02 -4.9694711944050007e-02 -6.8550522921973236e-02  -1.2283219482758937e-02 -9.3064185572835120e-02 -5.3737308201176309e-02  -2.4106052262803629e-02 -9.1974819816265763e-02 -5.1556740136545959e-02  -1.8215036178334518e-02 -9.7173297868018219e-02 -4.3841887180769000e-02  -6.9003869203096160e-02 -6.2118515913322979e-02 -5.5494007876963090e-02  -6.1737717602079134e-02 -4.7492392492632700e-02 -7.5052809137268403e-02  -1.0159513192616125e-01 -3.2185298122517893e-02 -1.8409529320384262e-02  -1.2976833024097273e-02 -1.0179278990884701e-01 -3.4172710316177447e-02  -2.4185187104674540e-02 -9.9936715011684885e-02 -3.3612489620333814e-02  -1.9415768065018744e-02 -1.0353991094928278e-01 -2.4524426272895618e-02  -3.1900388130464176e-02 -1.0070257958115909e-01 -2.3304142679950814e-02  -2.8634173872419049e-02 -8.6114484184335857e-02 -5.8879811963216726e-02  -2.3560891384077787e-02 -8.0995396466224764e-02 -6.7722087185149424e-02  -9.3471905353792656e-02 -5.1435973646648786e-02 -1.7698714356307817e-02  -9.3348165784090997e-02 -4.7894624360694589e-02 -2.6226798635516062e-02  -9.1564210952884598e-02 -1.6408324418089693e-02 -5.5203931326205657e-02  -9.3431512699587091e-02 -2.3128110584139890e-02 -4.9333041112925954e-02  -8.7435393431424147e-02 -2.3340774765466376e-02 -5.9222706491880557e-02  -8.9296977067667233e-02 -3.3810025827095753e-02 -5.0800194831913739e-02  -8.8358689221863213e-02 -6.0706282623538173e-02 -1.4505951506377497e-02  -9.2331789777010800e-02 -5.5774438936788177e-02 -8.0696908371614817e-03  -8.7660337396594082e-02 -6.3053212912881670e-02 -6.6637231148537219e-03  -4.5085844923634273e-02 -6.4771696877530427e-02 -7.3941401459159131e-02  -9.7883051184625675e-02 -3.7423700937058775e-02 -2.6773796295999314e-02  -8.2454277674097007e-02 -6.8778440748118286e-02 -1.3107359798885290e-02  -3.8810751232362620e-02 -1.0073113725002904e-01 -7.2586341743915359e-03  -9.2559349901684129e-02 -4.4335994562432215e-02 -3.4094086519098322e-02  -2.8125682711993453e-02 -6.5643248412424179e-02 -8.1256819281586262e-02  -1.7893497660542084e-02 -6.1449973855777010e-02 -8.7199679011079806e-02  -2.0783687817042623e-02 -6.8979013043279788e-02 -8.0704865360665137e-02  -2.8123304514109212e-02 -7.4614386464072230e-02 -7.3098890738673067e-02  -1.7639758705772689e-02 -7.5129454873275658e-02 -7.5803955596434339e-02  -7.6790252724375341e-02 -2.2328645239222688e-02 -7.2799031366169761e-02  -7.3301715585642732e-02 -1.4834602632371803e-02 -7.8138673516595369e-02  -9.6517458499401493e-02 -3.3231960430067778e-02 -3.5780308167837928e-02  -6.6411640207713701e-02 -1.0567888569925707e-02 -8.4735742877661127e-02  -6.8768202758891700e-02 -2.1449053887198827e-02 -8.0675680801299207e-02  -7.2193240260935598e-02 -6.6760367534479887e-03 -8.0299039946739079e-02  -9.4349533573115721e-02 -2.9469772704978543e-02 -4.3902932486534915e-02  -9.2551916411294344e-02 -3.7896096331311309e-02 -4.1204185948935136e-02  -5.6731132181985403e-02 -9.0373149857625970e-02 -1.7802776654565790e-02  -6.0866693747545803e-02 -8.5751228695325019e-02 -2.5385871660012369e-02  -6.4877891757907993e-02 -8.4803837931423848e-02 -1.7366615163742695e-02  -5.3643929095972591e-02 -8.9339837667430047e-02 -2.9009376114235142e-02  -5.2932789762701958e-02 -8.314218