<?xml version="1.0"?>
<VTKFile type="UnstructuredGrid"  version="0.1"  >
<UnstructuredGrid>
<Piece  NumberOfPoints="597" NumberOfCells="2124">
<Points>
<DataArray  type="Float64"  NumberOfComponents="3"  format="ascii">0 0 0  1 0 0  0 1 0  0 0 1  0.09999999999981467 0 0  0.1999999999995579 0 0  0.2999999999992664 0 0  0.3999999999989749 0 0  0.4999999999986943 0 0  0.5999999999989468 0 0  0.69999999999921 0 0  0.7999999999994734 0 0  0.8999999999997368 0 0  0 0.09999999999981467 0  0 0.1999999999995579 0  0 0.2999999999992664 0  0 0.3999999999989749 0  0 0.4999999999986943 0  0 0.5999999999989468 0  0 0.69999999999921 0  0 0.7999999999994734 0  0 0.8999999999997368 0  0 0 0.09999999999981467  0 0 0.1999999999995579  0 0 0.2999999999992664  0 0 0.3999999999989749  0 0 0.4999999999986943  0 0 0.5999999999989468  0 0 0.69999999999921  0 0 0.7999999999994734  0 0 0.8999999999997368  0.9951847266502585 0.09801714055230534 0  0.9807852803038259 0.1950903225158687 0  0.9569403355024331 0.2902846780119318 0  0.9238795320817892 0.3826834334019886 0  0.8819212636904032 0.4713967380569389 0  0.8314696113679687 0.5555702344182949 0  0.7730104520841969 0.6343932857215511 0  0.7071067795733449 0.7071067827997501 0  0.634393282646958 0.7730104546074502 0  0.5555702316245595 0.8314696132346829 0  0.471396735522105 0.8819212650453002 0  0.3826834312318057 0.9238795329807084 0  0.2902846763682919 0.9569403360010258 0  0.1950903214145686 0.980785280522888 0  0.0980171400302339 0.995184726701678 0  0.9951847266502585 0 0.09801714055230534  0.9807852803038259 0 0.1950903225158687  0.9569403355024331 0 0.2902846780119318  0.9238795320817892 0 0.3826834334019886  0.8819212636904032 0 0.4713967380569389  0.8314696113679687 0 0.5555702344182949  0.7730104520841969 0 0.6343932857215511  0.7071067795733449 0 0.7071067827997501  0.634393282646958 0 0.7730104546074502  0.5555702316245595 0 0.8314696132346829  0.471396735522105 0 0.8819212650453002  0.3826834312318057 0 0.9238795329807084  0.2902846763682919 0 0.9569403360010258  0.1950903214145686 0 0.980785280522888  0.0980171400302339 0 0.995184726701678  0 0.9951847266502585 0.09801714055230534  0 0.9807852803038259 0.1950903225158687  0 0.9569403355024331 0.2902846780119318  0 0.9238795320817892 0.3826834334019886  0 0.8819212636904032 0.4713967380569389  0 0.8314696113679687 0.5555702344182949  0 0.7730104520841969 0.6343932857215511  0 0.7071067795733449 0.7071067827997501  0 0.634393282646958 0.7730104546074502  0 0.5555702316245595 0.8314696132346829  0 0.471396735522105 0.8819212650453002  0 0.3826834312318057 0.9238795329807084  0 0.2902846763682919 0.9569403360010258  0 0.1950903214145686 0.980785280522888  0 0.0980171400302339 0.995184726701678  0.09240154966779951 0 0.3658235692199516  0.07916357488785433 0 0.4469199030523527  0.1536813483092524 0 0.4301465381022301  0.2555379022644893 0 0.09556049568595243  0.1864593291765566 0 0.2034979771761179  0.301651764011142 0 0.1939053326038485  0.1881720785854029 0 0.3302588474155368  0.08403438330774521 0 0.6437268466185475  0.09138388892861184 0 0.5324072873297468  0.1930859140709486 0 0.7878139522981464  0.2165176696171426 0 0.900824597607195  0.292033522918994 0 0.8485491372975176  0.8037370491763215 0 0.0819245024222376  0.13014171782822 0 0.8868491929551598  0.08390174260734276 0 0.8253161934654943  0.0912526277304111 0 0.7448765232291942  0.8893622411880446 0 0.270275215225845  0.8593018882538136 0 0.1801969264281539  0.8024703672696746 0 0.2475353432181931  0.3476914857890963 0 0.4125368919261175  0.2997235777995208 0 0.3096876237048341  0.2490386282757974 0 0.412527605219857  0.4554126154120848 0 0.2518749964366375  0.39715257119151 0 0.3258159451822259  0.4883877361055989 0 0.3266984434363212  0.08966539318254355 0 0.2701713986717769  0.08377502767602918 0 0.164580120521203  0.3869558528229924 0 0.8037364723405749  0.1791913905804899 0 0.6945879747883159  0.1628348997531483 0 0.5951991143072877  0.2434219731662663 0 0.6106761106298939  0.3204481765543245 0 0.6201302437713152  0.2846206283417919 0 0.7159219267704837  0.3832252637688779 0 0.6893291551637116  0.1561812521325313 0 0.09527745928338882  0.8122499659106144 0 0.3273472587872134  0.2026260329838435 0 0.5147603927306801  0.3051207491780334 0 0.5196560474248884  0.5886190882535927 0 0.5879547877726188  0.5628286668856228 0 0.4841066442899339  0.4793970684942127 0 0.5419440173923771  0.4015076433379883 0 0.1595345792024606  0.4550663848726773 0 0.08400234057127416  0.3574412370957718 0 0.08514557536940835  0.4777735346904641 0 0.6420237002140541  0.5886050303809575 0 0.712791733722679  0.7032448955145116 0 0.5547060123784804  0.3710082806848816 0 0.2384994559961529  0.6343947712920404 0 0.1960314230465952  0.7205780420889929 0 0.2811987241304542  0.745939430962431 0 0.1834190974026157  0.6797060130425652 0 0.1027709852058109  0.5617353506566283 0 0.09368054426051139  0.5099863318045709 0 0.1736146479983669  0.767516113391133 0 0.4796577434100839  0.6547738563668709 0 0.4463662193850245  0.4595209371514753 0 0.4253249285837939  0.3873123962753185 0 0.4899626124422253  0.3876250349852705 0 0.5839247669697213  0.07755778095112512 0 0.07322480571131515  0.6662618639536104 0 0.6404224526940073  0.6281317226641706 0 0.5172795154653362  0.5467991787548994 0 0.2775110285514451  0.6382784164401777 0 0.32558335190295  0.7209625386664502 0 0.3760300013763025  0.4777689774710401 0 0.7650512433185178  0.8150026845526732 0 0.4083495007681245  0.5566757769165783 0 0.3852531587967231  0.08307535298787436 0 0.9466352209487393  0.9264479164039098 0 0.09196696687313166  0.2397696045481275 0 0.2516617606603849  0.08142379610690136 0.4255946222877561 0.9012432429190713  0.09186671735860186 0.5103340042487068 0.8550553843753256  0.9658493887414453 0.07517233868428744 0.2479598309495128  0.2588669386047153 0.4173196613385269 0.8711097567802347  0.349931687668115 0.4640670731596268 0.8137503091088829  0.2521091443082024 0.5198490772623717 0.8162094806026494  0.3381706165708041 0.3470207631890471 0.8747669541105296  0.4127313919422814 0.6915412096022421 0.5928098797483512  0.505094034203222 0.6002477622197614 0.6201472732847281  0.5053541985510116 0.6749299798537994 0.5376677936248502  0.5711974176563547 0.6081084457949028 0.5513053856218164  0.2265606352222516 0.3190644824037021 0.9202543858282597  0.1657801920411619 0.4763492767397394 0.8634861287110075  0.1656568208377873 0.3895779149708851 0.9059728836322062  0.501344556404584 0.2277556352228774 0.8347340932223356  0.4415367071350051 0.3068779784495727 0.8431318061816198  0.4059460944519277 0.2465220798785426 0.8800196773547647  0.6196876017566089 0.7450935593761555 0.2466229186537899  0.627698728320387 0.714123017011242 0.3098751733194038  0.6711018023358704 0.69515091935471 0.2576578549585624  0.5155953815884997 0.3094099022200982 0.7990162169147497  0.899989132227882 0.4289906012996104 0.07737328911389559  0.9382293875188548 0.3361973257557999 0.08183504475860598  0.2363183186651487 0.9697312279355392 0.06144101097726593  0.2993323950146074 0.9481462475789452 0.106858834434898  0.3101615066201264 0.2414838162804179 0.9195028038487859  0.4482922838801319 0.1771577048152243 0.8761559084079369  0.5266326972169642 0.1057746683003005 0.8434866458741044  0.4200451415729211 0.09020206018716082 0.9030092288448531  0.7623891105001969 0.5843698709159578 0.2779832695620105  0.7799115838824263 0.596929282445646 0.1881843592994147  0.7264879983305693 0.6504346235700518 0.2216979673856474  0.8178732076005444 0.5297083005156807 0.2247054353013872  0.08303734348179403 0.1922053315992417 0.9778353184930026  0.09408269694107538 0.07627092328721888 0.9926385003601306  0.1760515877647063 0.1196852712822077 0.9770779264130525  0.5576143975194612 0.3637809431371279 0.7461431558952143  0.4455986119305068 0.3912097319557027 0.8052309126385754  0.8060332204752099 0.4925189261569118 0.3282309474556054  0.7346451337886817 0.5624574787189985 0.379391765901261  0.642508165502269 0.2904084282097414 0.7091164940174894  0.7030254185009037 0.306273768786429 0.6418345888895255  0.6340141384684502 0.3769833468372913 0.6752108029567235  0.365152486570974 0.1655128603952953 0.9161163433728284  0.5962792236506059 0.542109883053058 0.5920877993497508  0.5485896415631504 0.5085733599282969 0.6636283167111371  0.5920678220815722 0.6464708649476155 0.4811768020483384  0.1878625042731283 0.2239323962641036 0.9563273296270713  0.1024217313722561 0.3092935774102874 0.9454349644028699  0.2334505071908325 0.06487815783086033 0.9702018786463037  0.4887206245964966 0.8674866792832123 0.09283863613924619  0.5742874233407752 0.8143734795796027 0.08360497084518105  0.9317006522490203 0.08389294215323394 0.3534060962343804  0.951181716421189 0.1590863374964037 0.2644709427669156  0.5455072387620422 0.7115493400103802 0.4428536882413925  0.9076276342048921 0.3867895805147213 0.1631131448807132  0.8905082493452895 0.127913990281725 0.4366154703376809  0.9096700297655037 0.1954608695184058 0.3664634844476816  0.4909557921631998 0.4638599224188366 0.7374255098075979  0.4820557633059458 0.5398846258057163 0.6900339353119844  0.4181956098394346 0.5173376920524271 0.7466419116905315  0.7346402167242096 0.09513558808181954 0.67175365414096  0.8078263850243458 0.09713596463829366 0.5813614504181416  0.2601336813274003 0.1475738587985683 0.954228706358363  0.3264256065230105 0.07648882390671821 0.9421230191559125  0.4590556119879899 0.7423895417623142 0.4879812633537003  0.6126112913498895 0.686574629053208 0.3915644065170771  0.6684671903139626 0.6091898762120843 0.4266606499250449  0.6977699223891808 0.542245960309553 0.4680667195357594  0.7549550374165268 0.4843931863016896 0.4420476586793638  0.07712060794257616 0.6883652307079324 0.7212528828247291  0.1027005936763692 0.7518617879958691 0.6512729380299598  0.9625479306552708 0.2091983633587219 0.1724457188778192  0.9825939555666527 0.1641265719497667 0.08701486576382911  0.964839163020035 0.2492141217550538 0.08353269432177644  0.97740960683
[...]
<PointData  Vectors="Solid displacement [m]"> 
<DataArray  type="Float64"  Name="Solid displacement [m]"  NumberOfComponents="3" format="ascii">0.0000000000000000e+00 0.0000000000000000e+00 0.0000000000000000e+00  -1.6564369779434199e-01 0.0000000000000000e+00 0.0000000000000000e+00  0.0000000000000000e+00 -1.6564363397048601e-01 0.0000000000000000e+00  0.0000000000000000e+00 0.0000000000000000e+00 -1.6564392621453009e-01  -1.6449783917296290e-02 0.0000000000000000e+00 0.0000000000000000e+00  -3.2909503035636729e-02 0.0000000000000000e+00 0.0000000000000000e+00  -4.9386041490384391e-02 0.0000000000000000e+00 0.0000000000000000e+00  -6.5887331487977069e-02 0.0000000000000000e+00 0.0000000000000000e+00  -8.2420271440760320e-02 0.0000000000000000e+00 0.0000000000000000e+00  -9.8988705737211372e-02 0.0000000000000000e+00 0.0000000000000000e+00  -1.1559562557490839e-01 0.0000000000000000e+00 0.0000000000000000e+00  -1.3224155079409475e-01 0.0000000000000000e+00 0.0000000000000000e+00  -1.4892525080361085e-01 0.0000000000000000e+00 0.0000000000000000e+00  0.0000000000000000e+00 -1.6449895242947831e-02 0.0000000000000000e+00  0.0000000000000000e+00 -3.2908900554878412e-02 0.0000000000000000e+00  0.0000000000000000e+00 -4.9385363756754917e-02 0.0000000000000000e+00  0.0000000000000000e+00 -6.5887177791121646e-02 0.0000000000000000e+00  0.0000000000000000e+00 -8.2420081184097743e-02 0.0000000000000000e+00  0.0000000000000000e+00 -9.8988599595284804e-02 0.0000000000000000e+00  0.0000000000000000e+00 -1.1559548599593603e-01 0.0000000000000000e+00  0.0000000000000000e+00 -1.3224164648442405e-01 0.0000000000000000e+00  0.0000000000000000e+00 -1.4892559422503371e-01 0.0000000000000000e+00  0.0000000000000000e+00 0.0000000000000000e+00 -1.6449831808616151e-02  0.0000000000000000e+00 0.0000000000000000e+00 -3.2909322942035094e-02  0.0000000000000000e+00 0.0000000000000000e+00 -4.9385652661845816e-02  0.0000000000000000e+00 0.0000000000000000e+00 -6.5887059672105050e-02  0.0000000000000000e+00 0.0000000000000000e+00 -8.2420098939969322e-02  0.0000000000000000e+00 0.0000000000000000e+00 -9.8988569434488832e-02  0.0000000000000000e+00 0.0000000000000000e+00 -1.1559528740490023e-01  0.0000000000000000e+00 0.0000000000000000e+00 -1.3224142815824480e-01  0.0000000000000000e+00 0.0000000000000000e+00 -1.4892556854391020e-01  -1.6484614009699938e-01 -1.6236137952945796e-02 0.0000000000000000e+00  -1.6246092506219123e-01 -3.2315622011060821e-02 0.0000000000000000e+00  -1.5851102583151433e-01 -4.8084000966808031e-02 0.0000000000000000e+00  -1.5303458441317905e-01 -6.3389123409936257e-02 0.0000000000000000e+00  -1.4608452919224590e-01 -7.8083728567431065e-02 0.0000000000000000e+00  -1.3772781089495298e-01 -9.2026504649579607e-02 0.0000000000000000e+00  -1.2804396004489538e-01 -1.0508366651309736e-01 0.0000000000000000e+00  -1.1712758221286126e-01 -1.1712813555583704e-01 0.0000000000000000e+00  -1.0508268965468640e-01 -1.2804470262697520e-01 0.0000000000000000e+00  -9.2026045423974356e-02 -1.3772792444274887e-01 0.0000000000000000e+00  -7.8084080150569626e-02 -1.4608429055923064e-01 0.0000000000000000e+00  -6.3388525929258782e-02 -1.5303466966330059e-01 0.0000000000000000e+00  -4.8083888314818642e-02 -1.5851055041439877e-01 0.0000000000000000e+00  -3.2315484077112343e-02 -1.6246068291599511e-01 0.0000000000000000e+00  -1.6236295867784818e-02 -1.6484614907961859e-01 0.0000000000000000e+00  -1.6484623231708509e-01 0.0000000000000000e+00 -1.6236100010839461e-02  -1.6246108279148622e-01 0.0000000000000000e+00 -3.2315041967255001e-02  -1.5851107382863441e-01 0.0000000000000000e+00 -4.8084130587591284e-02  -1.5303530255520031e-01 0.0000000000000000e+00 -6.3388441080382010e-02  -1.4608495829766890e-01 0.0000000000000000e+00 -7.8084416626841346e-02  -1.3772751658782917e-01 0.0000000000000000e+00 -9.2027612141558413e-02  -1.2804411426984894e-01 0.0000000000000000e+00 -1.0508331094292551e-01  -1.1712830701462033e-01 0.0000000000000000e+00 -1.1712741309547116e-01  -1.0508266908171122e-01 0.0000000000000000e+00 -1.2804514631257666e-01  -9.2026270905192692e-02 0.0000000000000000e+00 -1.3772769368700294e-01  -7.8084273493709597e-02 0.0000000000000000e+00 -1.4608436243652834e-01  -6.3389636108601904e-02 0.0000000000000000e+00 -1.5303494400744863e-01  -4.8083929468530053e-02 0.0000000000000000e+00 -1.5851156810868222e-01  -3.2314472640532887e-02 0.0000000000000000e+00 -1.6246126384941792e-01  -1.6236117742557805e-02 0.0000000000000000e+00 -1.6484651095466876e-01  0.0000000000000000e+00 -1.6484588679157750e-01 -1.6237161775727638e-02  0.0000000000000000e+00 -1.6246038356976564e-01 -3.2315700453078945e-02  0.0000000000000000e+00 -1.5851014382984591e-01 -4.8084709475218847e-02  0.0000000000000000e+00 -1.5303441502632908e-01 -6.3388698007003155e-02  0.0000000000000000e+00 -1.4608415830366731e-01 -7.8083740747943331e-02  0.0000000000000000e+00 -1.3772800666788956e-01 -9.2025514080640566e-02  0.0000000000000000e+00 -1.2804391093381687e-01 -1.0508330207384643e-01  0.0000000000000000e+00 -1.1712801945165208e-01 -1.1712699659896153e-01  0.0000000000000000e+00 -1.0508319626736462e-01 -1.2804381343936189e-01  0.0000000000000000e+00 -9.2026227342511327e-02 -1.3772757348848375e-01  0.0000000000000000e+00 -7.8083816215472043e-02 -1.4608435815540693e-01  0.0000000000000000e+00 -6.3388584742214066e-02 -1.5303471789126091e-01  0.0000000000000000e+00 -4.8083889620855753e-02 -1.5851087114190948e-01  0.0000000000000000e+00 -3.2316090069065308e-02 -1.6246092048550800e-01  0.0000000000000000e+00 -1.6236828917634158e-02 -1.6484631849484382e-01  -1.5218043264021206e-02 0.0000000000000000e+00 -6.0248716283825506e-02  -1.3045023508455923e-02 0.0000000000000000e+00 -7.3644008735372343e-02  -2.5324378640007868e-02 0.0000000000000000e+00 -7.0881713501239979e-02  -4.2061025658724369e-02 0.0000000000000000e+00 -1.5728886310846617e-02  -3.0691238464744950e-02 0.0000000000000000e+00 -3.3495617305588796e-02  -4.9674448377283638e-02 0.0000000000000000e+00 -3.1931140335562623e-02  -3.0991286589572783e-02 0.0000000000000000e+00 -5.4392605554920634e-02  -1.3870508652379267e-02 0.0000000000000000e+00 -1.0625084508280311e-01  -1.5068943145033526e-02 0.0000000000000000e+00 -8.7791052148252585e-02  -3.1921242481118793e-02 0.0000000000000000e+00 -1.3024200395308153e-01  -3.5837617903461107e-02 0.0000000000000000e+00 -1.4910297577415282e-01  -4.8322258015751553e-02 0.0000000000000000e+00 -1.4040806393883951e-01  -1.3287003767831390e-01 0.0000000000000000e+00 -1.3543271243874673e-02  -2.1534213827349366e-02 0.0000000000000000e+00 -1.4674380429691969e-01  -1.3873477227519162e-02 0.0000000000000000e+00 -1.3646766472261732e-01  -1.5076806528145234e-02 0.0000000000000000e+00 -1.2306748126635171e-01  -1.4721014059369356e-01 0.0000000000000000e+00 -4.4736897385068822e-02  -1.4215844208512529e-01 0.0000000000000000e+00 -2.9810892642104965e-02  -1.3270405022209211e-01 0.0000000000000000e+00 -4.0934882673122459e-02  -5.7332433931354676e-02 0.0000000000000000e+00 -6.8024643369394955e-02  -4.9380918391273725e-02 0.0000000000000000e+00 -5.1022271714971895e-02  -4.1045833367793924e-02 0.0000000000000000e+00 -6.7991364133772839e-02  -7.5082843055505402e-02 0.0000000000000000e+00 -4.1526313521174488e-02  -6.5474147511243613e-02 0.0000000000000000e+00 -5.3713692707222482e-02  -8.0565798184522572e-02 0.0000000000000000e+00 -5.3893164565544646e-02  -1.4759356143546279e-02 0.0000000000000000e+00 -4.4472026005692257e-02  -1.3784110557527774e-02 0.0000000000000000e+00 -2.7079568529576541e-02  -6.4025312418973052e-02 0.0000000000000000e+00 -1.3298525491238153e-01  -2.9595980522457078e-02 0.0000000000000000e+00 -1.1472124190470376e-01  -2.6868790783728169e-02 0.0000000000000000e+00 -9.8211634912574314e-02  -4.0181381285255287e-02 0.0000000000000000e+00 -1.0080341372427419e-01  -5.2916609461965393e-02 0.0000000000000000e+00 -1.0240411273713974e-01  -4.7034207276241330e-02 0.0000000000000000e+00 -1.1830763715697099e-01  -6.3340486702858356e-02 0.0000000000000000e+00 -1.1393422226458473e-01  -2.5697539670791841e-02 0.0000000000000000e+00 -1.5676621582379400e-02  -1.3437129303645409e-01 0.0000000000000000e+00 -5.4153525631127387e-02  -3.3415584690150199e-02 0.0000000000000000e+00 -8.4890561079997942e-02  -5.0340400139761245e-02 0.0000000000000000e+00 -8.5735217715325718e-02  -9.7331669715424882e-02 0.0000000000000000e+00 -9.7221905759041855e-02  -9.2982355015332419e-02 0.0000000000000000e+00 -7.9977103309328765e-02  -7.9184314198301811e-02 0.0000000000000000e+00 -8.9515249191274834e-02  -6.6150366214647385e-02 0.0000000000000000e+00 -2.6283967795307783e-02  -7.4991484359644478e-02 0.0000000000000000e+00 -1.3842920790460211e-02  -5.8864723448122457e-02 0.0000000000000000e+00 -1.4021992419265746e-02  -7.8977069616435663e-02 0.0000000000000000e+00 -1.0612789359850142e-01  -9.7422680283359847e-02 0.0000000000000000e+00 -1.1797748293726792e-01  -1.1636231450530092e-01 0.0000000000000000e+00 -9.1784639000429477e-02  -6.1129521453383323e-02 0.0000000000000000e+00 -3.9296708498540507e-02  -1.0472544006446853e-01 0.0000000000000000e+00 -3.2360818991146505e-02  -1.1908077333335025e-01 0.0000000000000000e+00 -4.6470462823505726e-02  -1.2326535064125831e-01 0.0000000000000000e+00 -3.0309748759543679e-02  -1.1223064061102693e-01 0.0000000000000000e+00 -1.6969111022216061e-02  -9.2650663631665492e-02 0.0000000000000000e+00 -1.5451242711205600e-02  -8.4093194008947714e-02 0.0000000000000000e+00 -2.8627751182573276e-02  -1.2700965573756079e-01 0.0000000000000000e+00 -7.9374412722488422e-02  -1.0822699146110523e-01 0.0000000000000000e+00 -7.3779396894951735e-02  -7.5830355862639004e-02 0.0000000000000000e+00 -7.0187368368809733e-02  -6.3913753220251321e-02 0.0000000000000000e+00 -8.0852322231248136e-02  -6.4011677795179078e-02 0.0000000000000000e+00 -9.6427921060359897e-02  -1.2758492477634232e-02 0.0000000000000000e+00 -1.2045601569099004e-02  -1.1027557317152015e-01 0.0000000000000000e+00 -1.0599894021578732e-01  -1.0384576386877928e-01 0.0000000000000000e+00 -8.5519233867572680e-02  -9.0222423368423843e-02 0.0000000000000000e+00 -4.5789835800827794e-02  -1.0542016872909506e-01 0.0000000000000000e+00 -5.3774551919730462e-02  -1.1919250744066981e-01 0.0000000000000000e+00 -6.2166939436740058e-02  -7.9059015220063728e-02 0.0000000000000000e+00 -1.2659746006610950e-01  -1.3487700467060540e-01 0.0000000000000000e+00 -6.7578843732721203e-02  -9.1906935669311393e-02 0.0000000000000000e+00 -6.3605230771448695e-02  -1.3753994152072698e-02 0.0000000000000000e+00 -1.5672434232220120e-01  -1.5335114907408201e-01 0.0000000000000000e+00 -1.5222890282485170e-02  -3.9481554270867761e-02 0.0000000000000000e+00 -4.1439443005170579e-02  -1.3487591031023401e-02 -7.0496574322142097e-02 -1.4928514897924794e-01  -1.5217272167827674e-02 -8.4533341621030308e-02 -1.4163428572794670e-01  -1.5998688916139303e-01 -1.2452137278959467e-02 -4.1073258193542940e-02  -4.2879992468855689e-02 -6.9126159482188781e-02 -1.4429258122663899e-01  -5.7962966472135342e-02 -7.6868880600023282e-02 -1.3479199803950898e-01  -4.1760684339384034e-02 -8.6108898190303471e-02 -1.3519916780169522e-01  -5.6015413451213289e-02 -5.7482226586876094e-02 -1.4489844680686542e-01  -6.8365842520374753e-02 -1.1454839432967660e-01 -9.8194676372259343e-02  -8.3664256342337248e-02 -9.9427344542266760e-02 -1.0272284279136179e-01  -8.3707482713212975e-02 -1.1179737957574105e-01 -8.9061276629214980e-02  -9.4614037647248128e-02 -1.0072917750485186e-01 -9.1320309480303993e-02  -3.7528428958054798e-02 -5.2851000460460838e-02 -1.5243353131292645e-01  -2.7461185794344607e-02 -7.8903842322228787e-02 -1.4303042165632474e-01  -2.7440366483550631e-02 -6.4530782508055454e-02 -1.5006820482522212e-01  -8.3044291674449044e-02 -3.7726480301905334e-02 -1.3826813399884416e-01  -7.3136658700252016e-02 -5.0833238478873798e-02 -1.3965891763215552e-01  -6.7241619449789014e-02 -4.0835806035719992e-02 -1.4576931724237249e-01  -1.0264687520433573e-01 -1.2342005379072803e-01 -4.0851632586581782e-02  -1.0397379165317119e-01 -1.1828975225064317e-01 -5.1329556287246621e-02  -1.1116353270912166e-01 -1.1514712261140141e-01 -4.2679532953686636e-02  -8.5404338275905767e-02 -5.1252423226635237e-02 -1.3235162183445423e-01  -1.4907717576242288e-01 -7.1059489595328623e-02 -1.2816767802030792e-02  -1.5541146967015529e-01 -5.5689147051907424e-02 -1.3555698431790808e-02  -3.9144824080060432e-02 -1.6062947607000769e-01 -1.0177769740719326e-02  -4.9582278693688038e-02 -1.5705386428529788e-01 -1.7701406255193369e-02  -5.1375708244595489e-02 -4.0001207442222596e-02 -1.5230920628501401e-01  -7.4256846277039448e-02 -2.9345332169106637e-02 -1.4512968979493432e-01  -8.7233057903946337e-02 -1.7520809918405541e-02 -1.3971830862517987e-01  -6.9578324097681929e-02 -1.4941518014407691e-02 -1.4957785203269738e-01  -1.2628441623904271e-01 -9.6796604618459986e-02 -4.6046998454174516e-02  -1.2918713555612601e-01 -9.8877495626049375e-02 -3.1172161133312261e-02  -1.2033780631256549e-01 -1.0774020824403699e-01 -3.6723161914282869e-02  -1.3547514233409419e-01 -8.7742384569247309e-02 -3.7221669319240758e-02  -1.3754913841139606e-02 -3.1838281247213752e-02 -1.6197198389619080e-01  -1.5584320293711526e-02 -1.2634436076973949e-02 -1.6442451851464976e-01  -2.9161303543628895e-02 -1.9825835374856611e-02 -1.6184686658525727e-01  -9.2364419026634489e-02 -6.0258274193917147e-02 -1.2359360288832726e-01  -7.3809538114014112e-02 -6.4801301702373165e-02 -1.3338090277180203e-01  -1.3351333539160545e-01 -8.1582716490825574e-02 -5.4369653430185953e-02  -1.2168884470288438e-01 -9.3167038487921155e-02 -6.2843524959247499e-02  -1.0642695551838861e-01 -4.8104617338748122e-02 -1.1746045400429839e-01  -1.1645113158061357e-01 -5.0732721431419152e-02 -1.0631565597826173e-01  -1.0501997106787947e-01 -6.2444893397585306e-02 -1.1184411133931187e-01  -6.0484750440272440e-02 -2.7416823791176180e-02 -1.5174881495283302e-01  -9.8769324826387714e-02 -8.9796854696513009e-02 -9.8075257600526586e-02  -9.0869772238951416e-02 -8.4242248732514263e-02 -1.0992546003350706e-01  -9.8071565152889423e-02 -1.0708361904772358e-01 -7.9703862446164286e-02  -3.1118130059557946e-02 -3.7093865483124301e-02 -1.5840899233892652e-01  -1.6965809598425880e-02 -5.1232541456933629e-02 -1.5660482795294697e-01  -3.8669408779839598e-02 -1.0747129405881663e-02 -1.6070833953030814e-01  -8.0953084113393220e-02 -1.4369359147464092e-01 -1.5378394482047966e-02  -9.5126816175794923e-02 -1.3489589579823114e-01 -1.3848631126483777e-02  -1.5433034674906301e-01 -1.3897132763592184e-02 -5.8538871852769299e-02  -1.5755669760601770e-01 -2.6351953998699509e-02 -4.3808372123058312e-02  -9.0358990186875821e-02 -1.1786333515651486e-01 -7.3356037350828199e-02  -1.5034236099145037e-01 -6.4069328676803386e-02 -2.7018747809194360e-02  -1.4750738026181817e-01 -2.1188855608150904e-02 -7.2322160431193175e-02  -1.5068107797842034e-01 -3.2376912976952159e-02 -6.0701626142347233e-02  -8.1323049611256096e-02 -7.6834945050823278e-02 -1.2214963709183023e-01  -7.9848467327101699e-02 -8.9428612513046027e-02 -1.1429908666014951e-01  -6.9270410642728639e-02 -8.5693657364925180e-02 -1.2367583599366094e-01  -1.2168854872560185e-01 -1.5758739190179952e-02 -1.1127147723667491e-01  -1.3381106250466437e-01 -1.6090034721402014e-02 -9.6299427427523995e-02  -4.3089592209945307e-02 -2.4445919236209063e-02 -1.5806170488852472e-01  -5.4070545800008842e-02 -1.2670592623315238e-02 -1.5605698845311075e-01  -7.6038498475009750e-02 -1.2297151541069898e-01 -8.0831262097140200e-02  -1.0147474463429866e-01 -1.1372625296055859e-01 -6.4860327273939311e-02  -1.1072672957068397e-01 -1.0090844920648211e-01 -7.0673203757308942e-02  -1.1558093940806370e-01 -8.9819080402183879e-02 -7.7532237761455472e-02  -1.2505293916201998e-01 -8.0236397520613151e-02 -7.3222219398648730e-02  -1.2774495798853959e-02 -1.1402341490939541e-01 -1.1947059614158595e-01  -1.7012029210546901e-02 -1.2454104791494686e-01 -1.0787862264465008e-01  -1.5943965372037014e-01 -3.4652377970844792e-02 -2.8564872404833783e-02  -1.6276045556414848e-01 -2.7186486218200055e-02 -1.4413669578819076e-02  -1.5981933981673110e-01 -4.1280894106528347e-02 -1.3836913955134211e-02  -1.6190163773847516e-01 -1.8749337471196104e-02 -2.9565679019146286e-02  -1.2650993133680966e-01 -5.1768579707353220e-02 -9.3557157638395366e-02  -1.1581261321991546e-01 -6.4892028174343280e-02 -9.9066189106173957e-02  -1.5424381606293408e-01 -4.2176008791822837e-02 -4.3217320637354492e-02  -1.1576118755811167e-02 -1.3397612153978972e-01 -9.6716871083288386e-02  -2.8741677658941572e-02 -1.3357180936634175e-01 -9.3648819132210570e-02  -5.6224034162397976e-02 -9.3091835315905494e-02 -1.2494082200743863e-01  -1.1326557669736072e-01 -8.0258841986375853e-02 -9.0371875160013951e-02  -1.0303039791604920e-01 -7.6107082878883014e-02 -1.0502426367382815e-01  -1.8822989938857639e-02 -1.4250639365362386e-01 -8.2311831927728868e-02  -3.6926266590173500e-02 -1.4085063327748629e-01 -7.8962785454043144e-02  -2.7901775602048023e-02 -1.4883740614210050e-01 -6.7130287223955504e-02  -1.0565753302347057e-01 -9.5145538131886337e-02 -8.4979247679576528e-02  -9.4544429319121437e-02 -7.2756700439980157e-02 -1.1491505272010502e-01  -1.5560860308326299e-01 -4.9287145107529608e-02 -2.8186193963674579e-02  -1.9876522135881005e-02 -1.5591097202053864e-01 -5.2289908134250510e-02  -3.7014209687322393e-02 -1.5303914034563385e-01 -5.1444191079879110e-02  -2.9714913632775314e-02 -1.5858018032659080e-01 -3.7508346754492938e-02  -4.8856180016340144e-02 -1.5421322761843542e-01 -3.5620845347580643e-02  -4.3807655611086897e-02 -1.3186203098334365e-01 -9.0171602946035601e-02  -3.6083207397429796e-02 -1.2402180959664168e-01 -1.0370240186381253e-01  -1.4315698960218978e-01 -7.8803136085752790e-02 -2.7089076308910554e-02  -1.4299122095818637e-01 -7.3348371955186412e-02 -4.0140225566437655e-02  -1.4023028502986412e-01 -2.5092498483933252e-02 -8.4520924391531888e-02  -1.4311152543187824e-01 -3.5375574885597477e-02 -7.5534757048905679e-02  -1.3392666702028155e-01 -3.5681396030388501e-02 -9.0709921644925334e-02  -1.3680003857831727e-01 -5.1745355077974987e-02 -7.7755669147238249e-02  -1.3527589407127158e-01 -9.2988312080564989e-02 -2.2167768397173940e-02  -1.4136341478926545e-01 -8.5452693417024911e-02 -1.2328609290979268e-02  -1.3422460030594457e-01 -9.6529049632933697e-02 -1.0187088236924937e-02  -6.9074523257931064e-02 -9.9154765306887147e-02 -1.1328926437600101e-01  -1.4991295495738335e-01 -5.7297638269006967e-02 -4.0997856138314193e-02  -1.2627504056721084e-01 -1.0531014945476694e-01 -2.0055435942441278e-02  -5.9451986251094407e-02 -1.5420819333200117e-01 -1.1090829374706840e-02  -1.4179117696960300e-01 -6.7884350226768114e-02 -5.2199149557641732e-02  -4.3020469185571890e-02 -1.0053532739657621e-01 -1.2441628483430436e-01  -2.7370718198123319e-02 -9.4142985587655673e-02 -1.3351264937381183e-01  -3.1795631600951918e-02 -1.0562374279934246e-01 -1.2357323547003959e-01  -4.3030834253793553e-02 -1.1427345530159509e-01 -1.1192616154658191e-01  -2.6991826265409843e-02 -1.1502668319438243e-01 -1.1609456356473079e-01  -1.1763355776241968e-01 -3.4169375814308969e-02 -1.1150104842327033e-01  -1.1224447177511830e-01 -2.2686462410760961e-02 -1.1968427032212207e-01  -1.4780314117729071e-01 -5.0887437954247709e-02 -5.4795467054862643e-02  -1.0172765799009280e-01 -1.6190989938758362e-02 -1.2971971021431369e-01  -1.0530561703820322e-01 -3.2816930040781254e-02 -1.2357806942533062e-01  -1.1052506395046904e-01 -1.0204227658128253e-02 -1.2295541087291936e-01  -1.4450225273670461e-01 -4.5133212488520258e-02 -6.7230253112920607e-02  -1.4176143899192972e-01 -5.7995857587400668e-02 -6.3071659356068871e-02  -8.6862420292161499e-02 -1.3838825861137896e-01 -2.7227377133591663e-02  -9.3204178490763734e-02 -1.3131404681834430e-01 -3.8823992755257775e-02  -9.9312984648895472e-02 -1.2988089508156889e-01 -2.6563712282354924e-02  -8.2147451685483916e-02 -1.3682031448223061e-01 -4.4380565073429377e-02  -8.1080363395001132e-02 -1.273636