<?xml version="1.0"?>
<VTKFile type="UnstructuredGrid"  version="0.1"  >
<UnstructuredGrid>
<Piece  NumberOfPoints="597" NumberOfCells="2124">
<Points>
<DataArray  type="Float64"  NumberOfComponents="3"  format="ascii">0 0 0  1 0 0  0 1 0  0 0 1  0.09999999999981467 0 0  0.1999999999995579 0 0  0.2999999999992664 0 0  0.3999999999989749 0 0  0.4999999999986943 0 0  0.5999999999989468 0 0  0.69999999999921 0 0  0.7999999999994734 0 0  0.8999999999997368 0 0  0 0.09999999999981467 0  0 0.1999999999995579 0  0 0.2999999999992664 0  0 0.3999999999989749 0  0 0.4999999999986943 0  0 0.5999999999989468 0  0 0.69999999999921 0  0 0.7999999999994734 0  0 0.8999999999997368 0  0 0 0.09999999999981467  0 0 0.1999999999995579  0 0 0.2999999999992664  0 0 0.3999999999989749  0 0 0.4999999999986943  0 0 0.5999999999989468  0 0 0.69999999999921  0 0 0.7999999999994734  0 0 0.8999999999997368  0.9951847266502585 0.09801714055230534 0  0.9807852803038259 0.1950903225158687 0  0.9569403355024331 0.2902846780119318 0  0.9238795320817892 0.3826834334019886 0  0.8819212636904032 0.4713967380569389 0  0.8314696113679687 0.5555702344182949 0  0.7730104520841969 0.6343932857215511 0  0.7071067795733449 0.7071067827997501 0  0.634393282646958 0.7730104546074502 0  0.5555702316245595 0.8314696132346829 0  0.471396735522105 0.8819212650453002 0  0.3826834312318057 0.9238795329807084 0  0.2902846763682919 0.9569403360010258 0  0.1950903214145686 0.980785280522888 0  0.0980171400302339 0.995184726701678 0  0.9951847266502585 0 0.09801714055230534  0.9807852803038259 0 0.1950903225158687  0.9569403355024331 0 0.2902846780119318  0.9238795320817892 0 0.3826834334019886  0.8819212636904032 0 0.4713967380569389  0.8314696113679687 0 0.5555702344182949  0.7730104520841969 0 0.6343932857215511  0.7071067795733449 0 0.7071067827997501  0.634393282646958 0 0.7730104546074502  0.5555702316245595 0 0.8314696132346829  0.471396735522105 0 0.8819212650453002  0.3826834312318057 0 0.9238795329807084  0.2902846763682919 0 0.9569403360010258  0.1950903214145686 0 0.980785280522888  0.0980171400302339 0 0.995184726701678  0 0.9951847266502585 0.09801714055230534  0 0.9807852803038259 0.1950903225158687  0 0.9569403355024331 0.2902846780119318  0 0.9238795320817892 0.3826834334019886  0 0.8819212636904032 0.4713967380569389  0 0.8314696113679687 0.5555702344182949  0 0.7730104520841969 0.6343932857215511  0 0.7071067795733449 0.7071067827997501  0 0.634393282646958 0.7730104546074502  0 0.5555702316245595 0.8314696132346829  0 0.471396735522105 0.8819212650453002  0 0.3826834312318057 0.9238795329807084  0 0.2902846763682919 0.9569403360010258  0 0.1950903214145686 0.980785280522888  0 0.0980171400302339 0.995184726701678  0.09240154966779951 0 0.3658235692199516  0.07916357488785433 0 0.4469199030523527  0.1536813483092524 0 0.4301465381022301  0.2555379022644893 0 0.09556049568595243  0.1864593291765566 0 0.2034979771761179  0.301651764011142 0 0.1939053326038485  0.1881720785854029 0 0.3302588474155368  0.08403438330774521 0 0.6437268466185475  0.09138388892861184 0 0.5324072873297468  0.1930859140709486 0 0.7878139522981464  0.2165176696171426 0 0.900824597607195  0.292033522918994 0 0.8485491372975176  0.8037370491763215 0 0.0819245024222376  0.13014171782822 0 0.8868491929551598  0.08390174260734276 0 0.8253161934654943  0.0912526277304111 0 0.7448765232291942  0.8893622411880446 0 0.270275215225845  0.8593018882538136 0 0.1801969264281539  0.8024703672696746 0 0.2475353432181931  0.3476914857890963 0 0.4125368919261175  0.2997235777995208 0 0.3096876237048341  0.2490386282757974 0 0.412527605219857  0.4554126154120848 0 0.2518749964366375  0.39715257119151 0 0.3258159451822259  0.4883877361055989 0 0.3266984434363212  0.08966539318254355 0 0.2701713986717769  0.08377502767602918 0 0.164580120521203  0.3869558528229924 0 0.8037364723405749  0.1791913905804899 0 0.6945879747883159  0.1628348997531483 0 0.5951991143072877  0.2434219731662663 0 0.6106761106298939  0.3204481765543245 0 0.6201302437713152  0.2846206283417919 0 0.7159219267704837  0.3832252637688779 0 0.6893291551637116  0.1561812521325313 0 0.09527745928338882  0.8122499659106144 0 0.3273472587872134  0.2026260329838435 0 0.5147603927306801  0.3051207491780334 0 0.5196560474248884  0.5886190882535927 0 0.5879547877726188  0.5628286668856228 0 0.4841066442899339  0.4793970684942127 0 0.5419440173923771  0.4015076433379883 0 0.1595345792024606  0.4550663848726773 0 0.08400234057127416  0.3574412370957718 0 0.08514557536940835  0.4777735346904641 0 0.6420237002140541  0.5886050303809575 0 0.712791733722679  0.7032448955145116 0 0.5547060123784804  0.3710082806848816 0 0.2384994559961529  0.6343947712920404 0 0.1960314230465952  0.7205780420889929 0 0.2811987241304542  0.745939430962431 0 0.1834190974026157  0.6797060130425652 0 0.1027709852058109  0.5617353506566283 0 0.09368054426051139  0.5099863318045709 0 0.1736146479983669  0.767516113391133 0 0.4796577434100839  0.6547738563668709 0 0.4463662193850245  0.4595209371514753 0 0.4253249285837939  0.3873123962753185 0 0.4899626124422253  0.3876250349852705 0 0.5839247669697213  0.07755778095112512 0 0.07322480571131515  0.6662618639536104 0 0.6404224526940073  0.6281317226641706 0 0.5172795154653362  0.5467991787548994 0 0.2775110285514451  0.6382784164401777 0 0.32558335190295  0.7209625386664502 0 0.3760300013763025  0.4777689774710401 0 0.7650512433185178  0.8150026845526732 0 0.4083495007681245  0.5566757769165783 0 0.3852531587967231  0.08307535298787436 0 0.9466352209487393  0.9264479164039098 0 0.09196696687313166  0.2397696045481275 0 0.2516617606603849  0.08142379610690136 0.4255946222877561 0.9012432429190713  0.09186671735860186 0.5103340042487068 0.8550553843753256  0.9658493887414453 0.07517233868428744 0.2479598309495128  0.2588669386047153 0.4173196613385269 0.8711097567802347  0.349931687668115 0.4640670731596268 0.8137503091088829  0.2521091443082024 0.5198490772623717 0.8162094806026494  0.3381706165708041 0.3470207631890471 0.8747669541105296  0.4127313919422814 0.6915412096022421 0.5928098797483512  0.505094034203222 0.6002477622197614 0.6201472732847281  0.5053541985510116 0.6749299798537994 0.5376677936248502  0.5711974176563547 0.6081084457949028 0.5513053856218164  0.2265606352222516 0.3190644824037021 0.9202543858282597  0.1657801920411619 0.4763492767397394 0.8634861287110075  0.1656568208377873 0.3895779149708851 0.9059728836322062  0.501344556404584 0.2277556352228774 0.8347340932223356  0.4415367071350051 0.3068779784495727 0.8431318061816198  0.4059460944519277 0.2465220798785426 0.8800196773547647  0.6196876017566089 0.7450935593761555 0.2466229186537899  0.627698728320387 0.714123017011242 0.3098751733194038  0.6711018023358704 0.69515091935471 0.2576578549585624  0.5155953815884997 0.3094099022200982 0.7990162169147497  0.899989132227882 0.4289906012996104 0.07737328911389559  0.9382293875188548 0.3361973257557999 0.08183504475860598  0.2363183186651487 0.9697312279355392 0.06144101097726593  0.2993323950146074 0.9481462475789452 0.106858834434898  0.3101615066201264 0.2414838162804179 0.9195028038487859  0.4482922838801319 0.1771577048152243 0.8761559084079369  0.5266326972169642 0.1057746683003005 0.8434866458741044  0.4200451415729211 0.09020206018716082 0.9030092288448531  0.7623891105001969 0.5843698709159578 0.2779832695620105  0.7799115838824263 0.596929282445646 0.1881843592994147  0.7264879983305693 0.6504346235700518 0.2216979673856474  0.8178732076005444 0.5297083005156807 0.2247054353013872  0.08303734348179403 0.1922053315992417 0.9778353184930026  0.09408269694107538 0.07627092328721888 0.9926385003601306  0.1760515877647063 0.1196852712822077 0.9770779264130525  0.5576143975194612 0.3637809431371279 0.7461431558952143  0.4455986119305068 0.3912097319557027 0.8052309126385754  0.8060332204752099 0.4925189261569118 0.3282309474556054  0.7346451337886817 0.5624574787189985 0.379391765901261  0.642508165502269 0.2904084282097414 0.7091164940174894  0.7030254185009037 0.306273768786429 0.6418345888895255  0.6340141384684502 0.3769833468372913 0.6752108029567235  0.365152486570974 0.1655128603952953 0.9161163433728284  0.5962792236506059 0.542109883053058 0.5920877993497508  0.5485896415631504 0.5085733599282969 0.6636283167111371  0.5920678220815722 0.6464708649476155 0.4811768020483384  0.1878625042731283 0.2239323962641036 0.9563273296270713  0.1024217313722561 0.3092935774102874 0.9454349644028699  0.2334505071908325 0.06487815783086033 0.9702018786463037  0.4887206245964966 0.8674866792832123 0.09283863613924619  0.5742874233407752 0.8143734795796027 0.08360497084518105  0.9317006522490203 0.08389294215323394 0.3534060962343804  0.951181716421189 0.1590863374964037 0.2644709427669156  0.5455072387620422 0.7115493400103802 0.4428536882413925  0.9076276342048921 0.3867895805147213 0.1631131448807132  0.8905082493452895 0.127913990281725 0.4366154703376809  0.9096700297655037 0.1954608695184058 0.3664634844476816  0.4909557921631998 0.4638599224188366 0.7374255098075979  0.4820557633059458 0.5398846258057163 0.6900339353119844  0.4181956098394346 0.5173376920524271 0.7466419116905315  0.7346402167242096 0.09513558808181954 0.67175365414096  0.8078263850243458 0.09713596463829366 0.5813614504181416  0.2601336813274003 0.1475738587985683 0.954228706358363  0.3264256065230105 0.07648882390671821 0.9421230191559125  0.4590556119879899 0.7423895417623142 0.4879812633537003  0.6126112913498895 0.686574629053208 0.3915644065170771  0.6684671903139626 0.6091898762120843 0.4266606499250449  0.6977699223891808 0.542245960309553 0.4680667195357594  0.7549550374165268 0.4843931863016896 0.4420476586793638  0.07712060794257616 0.6883652307079324 0.7212528828247291  0.1027005936763692 0.7518617879958691 0.6512729380299598  0.9625479306552708 0.2091983633587219 0.1724457188778192  0.9825939555666527 0.1641265719497667 0.08701486576382911  0.964839163020035 0.2492141217550538 0.08353269432177644  0.97740960683
[...]
<PointData  Vectors="Solid displacement [m]"> 
<DataArray  type="Float64"  Name="Solid displacement [m]"  NumberOfComponents="3" format="ascii">0.0000000000000000e+00 0.0000000000000000e+00 0.0000000000000000e+00  -1.6610129020763562e-01 0.0000000000000000e+00 0.0000000000000000e+00  0.0000000000000000e+00 -1.6610125492265260e-01 0.0000000000000000e+00  0.0000000000000000e+00 0.0000000000000000e+00 -1.6610141646606710e-01  -1.6546799362966318e-02 0.0000000000000000e+00 0.0000000000000000e+00  -3.3099089757206858e-02 0.0000000000000000e+00 0.0000000000000000e+00  -4.9660675933306753e-02 0.0000000000000000e+00 0.0000000000000000e+00  -6.6235941886121766e-02 0.0000000000000000e+00 0.0000000000000000e+00  -8.2828700239486505e-02 0.0000000000000000e+00 0.0000000000000000e+00  -9.9441075704648371e-02 0.0000000000000000e+00 0.0000000000000000e+00  -1.1607472144509569e-01 0.0000000000000000e+00 0.0000000000000000e+00  -1.3272992474834741e-01 0.0000000000000000e+00 0.0000000000000000e+00  -1.4940600547616981e-01 0.0000000000000000e+00 0.0000000000000000e+00  0.0000000000000000e+00 -1.6546860892790383e-02 0.0000000000000000e+00  0.0000000000000000e+00 -3.3098756778734972e-02 0.0000000000000000e+00  0.0000000000000000e+00 -4.9660301363147800e-02 0.0000000000000000e+00  0.0000000000000000e+00 -6.6235856940068630e-02 0.0000000000000000e+00  0.0000000000000000e+00 -8.2828595085188722e-02 0.0000000000000000e+00  0.0000000000000000e+00 -9.9441017036338231e-02 0.0000000000000000e+00  0.0000000000000000e+00 -1.1607464429428398e-01 0.0000000000000000e+00  0.0000000000000000e+00 -1.3272997762493399e-01 0.0000000000000000e+00  0.0000000000000000e+00 -1.4940619526804988e-01 0.0000000000000000e+00  0.0000000000000000e+00 0.0000000000000000e+00 -1.6546825830538871e-02  0.0000000000000000e+00 0.0000000000000000e+00 -3.3098990220429086e-02  0.0000000000000000e+00 0.0000000000000000e+00 -4.9660461031850865e-02  0.0000000000000000e+00 0.0000000000000000e+00 -6.6235791657083085e-02  0.0000000000000000e+00 0.0000000000000000e+00 -8.2828604903777373e-02  0.0000000000000000e+00 0.0000000000000000e+00 -9.9441000379598549e-02  0.0000000000000000e+00 0.0000000000000000e+00 -1.1607453455507689e-01  0.0000000000000000e+00 0.0000000000000000e+00 -1.3272985698347245e-01  0.0000000000000000e+00 0.0000000000000000e+00 -1.4940618110090700e-01  -1.6530150135026189e-01 -1.6280893078674512e-02 0.0000000000000000e+00  -1.6290971401005930e-01 -3.2404831424626517e-02 0.0000000000000000e+00  -1.5894896363239971e-01 -4.8216755430664587e-02 0.0000000000000000e+00  -1.5345745095711544e-01 -6.3564225525868129e-02 0.0000000000000000e+00  -1.4648816575176243e-01 -7.8299512297325971e-02 0.0000000000000000e+00  -1.3810823593171404e-01 -9.2280820343498077e-02 0.0000000000000000e+00  -1.2839784017165062e-01 -1.0537377362109103e-01 0.0000000000000000e+00  -1.1745123813967037e-01 -1.1745154420863006e-01 0.0000000000000000e+00  -1.0537323349223164e-01 -1.2839825077488701e-01 0.0000000000000000e+00  -9.2280566320686153e-02 -1.3810829882693598e-01 0.0000000000000000e+00  -7.8299706413204717e-02 -1.4648803396178567e-01 0.0000000000000000e+00  -6.3563895139173182e-02 -1.5345749813463580e-01 0.0000000000000000e+00  -4.8216693041068341e-02 -1.5894870090706126e-01 0.0000000000000000e+00  -3.2404755104528997e-02 -1.6290958018712109e-01 0.0000000000000000e+00  -1.6280980314134143e-02 -1.6530150630814114e-01 0.0000000000000000e+00  -1.6530155231884483e-01 0.0000000000000000e+00 -1.6280872107282889e-02  -1.6290980118539750e-01 0.0000000000000000e+00 -3.2404510841866449e-02  -1.5894899016267514e-01 0.0000000000000000e+00 -4.8216827065535720e-02  -1.5345784786711242e-01 0.0000000000000000e+00 -6.3563848409676271e-02  -1.4648840291951939e-01 0.0000000000000000e+00 -7.8299892571261409e-02  -1.3810807328499675e-01 0.0000000000000000e+00 -9.2281432432012186e-02  -1.2839792542308781e-01 0.0000000000000000e+00 -1.0537357710386555e-01  -1.1745163874062024e-01 0.0000000000000000e+00 -1.1745114492111260e-01  -1.0537322213886503e-01 0.0000000000000000e+00 -1.2839849599904463e-01  -9.2280690957121311e-02 0.0000000000000000e+00 -1.3810817130370587e-01  -7.8299813286279898e-02 0.0000000000000000e+00 -1.4648807370215428e-01  -6.3564508729320776e-02 0.0000000000000000e+00 -1.5345764977824125e-01  -4.8216715797112453e-02 0.0000000000000000e+00 -1.5894926339006607e-01  -3.2404196109326870e-02 0.0000000000000000e+00 -1.6290990128234556e-01  -1.6280881871387383e-02 0.0000000000000000e+00 -1.6530170633500943e-01  0.0000000000000000e+00 -1.6530136134263443e-01 -1.6281458924055050e-02  0.0000000000000000e+00 -1.6290941472819784e-01 -3.2404874771907857e-02  0.0000000000000000e+00 -1.5894847615993166e-01 -4.8217147001640287e-02  0.0000000000000000e+00 -1.5345735733790014e-01 -6.3563990402758591e-02  0.0000000000000000e+00 -1.4648796077052259e-01 -7.8299519018725103e-02  0.0000000000000000e+00 -1.3810834413826614e-01 -9.2280272864344634e-02  0.0000000000000000e+00 -1.2839781303928474e-01 -1.0537357219468373e-01  0.0000000000000000e+00 -1.1745147980762032e-01 -1.1745091472359691e-01  0.0000000000000000e+00 -1.0537351350442474e-01 -1.2839775933722239e-01  0.0000000000000000e+00 -9.2280666881330409e-02 -1.3810810486629777e-01  0.0000000000000000e+00 -7.8299560558150960e-02 -1.4648807133126102e-01  0.0000000000000000e+00 -6.3563927659855926e-02 -1.5345752480419275e-01  0.0000000000000000e+00 -4.8216693776174484e-02 -1.5894887818630285e-01  0.0000000000000000e+00 -3.2405090034930119e-02 -1.6290971151007233e-01  0.0000000000000000e+00 -1.6281274926120186e-02 -1.6530159996563321e-01  -1.5299551256724758e-02 0.0000000000000000e+00 -6.0571625317280491e-02  -1.3111631640116401e-02 0.0000000000000000e+00 -7.4020937331018305e-02  -2.5453733716397201e-02 0.0000000000000000e+00 -7.1243761810422052e-02  -4.2297488785413784e-02 0.0000000000000000e+00 -1.5817393893038309e-02  -3.0863597261978334e-02 0.0000000000000000e+00 -3.3683809275327430e-02  -4.9943217223334960e-02 0.0000000000000000e+00 -3.2103990622592310e-02  -3.1157119102977256e-02 0.0000000000000000e+00 -5.4683601648727709e-02  -1.3930995826904428e-02 0.0000000000000000e+00 -1.0671469704284781e-01  -1.5141276674284320e-02 0.0000000000000000e+00 -8.8213094583877466e-02  -3.2037430287619857e-02 0.0000000000000000e+00 -1.3071630480609170e-01  -3.5948848170179522e-02 0.0000000000000000e+00 -1.4956570711340239e-01  -4.8478817448894998e-02 0.0000000000000000e+00 -1.4086289344980829e-01  -1.3335588636825405e-01 0.0000000000000000e+00 -1.3592839663700389e-02  -2.1604027860304329e-02 0.0000000000000000e+00 -1.4721992715431037e-01  -1.3922747758056445e-02 0.0000000000000000e+00 -1.3695302004663304e-01  -1.5135836735728004e-02 0.0000000000000000e+00 -1.2354996107415370e-01  -1.4766501810991639e-01 0.0000000000000000e+00 -4.4875106044819507e-02  -1.4263194576962318e-01 0.0000000000000000e+00 -2.9910165223253335e-02  -1.3316971316923054e-01 0.0000000000000000e+00 -4.1078475264786710e-02  -5.7608047465878977e-02 0.0000000000000000e+00 -6.8351858698729506e-02  -4.9637236462847741e-02 0.0000000000000000e+00 -5.1287232405754730e-02  -4.1251870014947754e-02 0.0000000000000000e+00 -6.8332773467607327e-02  -7.5449312400684324e-02 0.0000000000000000e+00 -4.1728882516072839e-02  -6.5795298272522618e-02 0.0000000000000000e+00 -5.3977147137730837e-02  -8.0938037225733214e-02 0.0000000000000000e+00 -5.4142130938517941e-02  -1.4842054452723238e-02 0.0000000000000000e+00 -4.4720976327018741e-02  -1.3863909344016307e-02 0.0000000000000000e+00 -2.7236331649315632e-02  -6.4234357425771535e-02 0.0000000000000000e+00 -1.3341952189692413e-01  -2.9716421432969348e-02 0.0000000000000000e+00 -1.1518798263816667e-01  -2.6989727272720053e-02 0.0000000000000000e+00 -9.8653682239756263e-02  -4.0355364497053195e-02 0.0000000000000000e+00 -1.0123996827572565e-01  -5.3136430421450026e-02 0.0000000000000000e+00 -1.0282947982584183e-01  -4.7214281440119632e-02 0.0000000000000000e+00 -1.1876062889546157e-01  -6.3577739952541595e-02 0.0000000000000000e+00 -1.1436095031368772e-01  -2.5846348350724736e-02 0.0000000000000000e+00 -1.5767406892665266e-02  -1.3482026669354283e-01 0.0000000000000000e+00 -5.4334399037564249e-02  -3.3574570747547328e-02 0.0000000000000000e+00 -8.5294416463658859e-02  -5.0569900168234802e-02 0.0000000000000000e+00 -8.6126228768126104e-02  -9.7676780766762630e-02 0.0000000000000000e+00 -9.7566590605868184e-02  -9.3350239496242451e-02 0.0000000000000000e+00 -8.0293508024636376e-02  -7.9504234745271435e-02 0.0000000000000000e+00 -8.9877019230247102e-02  -6.6493715803907505e-02 0.0000000000000000e+00 -2.6420457278502580e-02  -7.5373007516856938e-02 0.0000000000000000e+00 -1.3913359600221961e-02  -5.9181789382737528e-02 0.0000000000000000e+00 -1.4097560833130220e-02  -7.9268655112927244e-02 0.0000000000000000e+00 -1.0651976939544779e-01  -9.7726032634039103e-02 0.0000000000000000e+00 -1.1834479336733372e-01  -1.1674037341580647e-01 0.0000000000000000e+00 -9.2082715200463225e-02  -6.1444966320499936e-02 0.0000000000000000e+00 -3.9499433254794165e-02  -1.0517589894199715e-01 0.0000000000000000e+00 -3.2499972809249086e-02  -1.1953505470255492e-01 0.0000000000000000e+00 -4.6647596798524982e-02  -1.2373856287712014e-01 0.0000000000000000e+00 -3.0426096520953363e-02  -1.1270197720850507e-01 0.0000000000000000e+00 -1.7040407462612293e-02  -9.3085409497330088e-02 0.0000000000000000e+00 -1.5523789309628208e-02  -8.4497805458740846e-02 0.0000000000000000e+00 -2.8765535565228519e-02  -1.2741657937025774e-01 0.0000000000000000e+00 -7.9628732923170922e-02  -1.0863046538728763e-01 0.0000000000000000e+00 -7.4054485371080586e-02  -7.6168737067554171e-02 0.0000000000000000e+00 -7.0500544430747852e-02  -6.4199281954356771e-02 0.0000000000000000e+00 -8.1213805691309565e-02  -6.4276711298288228e-02 0.0000000000000000e+00 -9.6827319350370367e-02  -1.2833554296918079e-02 0.0000000000000000e+00 -1.2116516024342956e-02  -1.1061914509562040e-01 0.0000000000000000e+00 -1.0632912140662017e-01  -1.0422278877653861e-01 0.0000000000000000e+00 -8.5829680917012222e-02  -9.0629828434358531e-02 0.0000000000000000e+00 -4.5996497673228810e-02  -1.0584940040812528e-01 0.0000000000000000e+00 -5.3993442503164325e-02  -1.1962547352771059e-01 0.0000000000000000e+00 -6.2392713104308314e-02  -7.9313605242356616e-02 0.0000000000000000e+00 -1.2700500278614152e-01  -1.3530498785383602e-01 0.0000000000000000e+00 -6.7793290847771220e-02  -9.2297158133898022e-02 0.0000000000000000e+00 -6.3875244841804568e-02  -1.3795101791040933e-02 0.0000000000000000e+00 -1.5719321862676236e-01  -1.5382389130257146e-01 0.0000000000000000e+00 -1.5269830729592683e-02  -3.9696287528145031e-02 0.0000000000000000e+00 -4.1664973292375118e-02  -1.3524737060172065e-02 -7.0691543584813971e-02 -1.4969760222346762e-01  -1.5259251798603156e-02 -8.4766987354555970e-02 -1.4202566439813846e-01  -1.6042884337761482e-01 -1.2486395503708378e-02 -4.1186599765155790e-02  -4.2998306880905550e-02 -6.9317216806268830e-02 -1.4469175809942530e-01  -5.8123545358290694e-02 -7.7081639193373214e-02 -1.3516463787591046e-01  -4.1875871585891566e-02 -8.6347146348461426e-02 -1.3557301188593551e-01  -5.6170344727395329e-02 -5.7640830929477277e-02 -1.4529926413432992e-01  -6.8554934048395577e-02 -1.1486530749528107e-01 -9.8466185099376477e-02  -8.3896004068395633e-02 -9.9701975073275578e-02 -1.0300690587480901e-01  -8.3939290535964023e-02 -1.1210645414630119e-01 -8.9307311514455645e-02  -9.4875956646720966e-02 -1.0100751226040820e-01 -9.1572561706105352e-02  -3.7632062220374143e-02 -5.2997011009368121e-02 -1.5285499420913481e-01  -2.7536713750198356e-02 -7.9122001032382802e-02 -1.4342582087858100e-01  -2.7516009599018523e-02 -6.4709204252007185e-02 -1.5048299199998250e-01  -8.3273825944411656e-02 -3.7830612469810912e-02 -1.3865023971198417e-01  -7.3339200947868582e-02 -5.0973289851030681e-02 -1.4004497548611725e-01  -6.7427731916915784e-02 -4.0948175584827634e-02 -1.4617218482564368e-01  -1.0293065006398930e-01 -1.2376100231784325e-01 -4.0964440456386468e-02  -1.0426126642082247e-01 -1.1861663015782693e-01 -5.1471045626241684e-02  -1.1147073626470044e-01 -1.1546532852630384e-01 -4.2797375694059170e-02  -8.5640622989562334e-02 -5.1393728228321112e-02 -1.3271741510056118e-01  -1.4948916144775642e-01 -7.1255837139403005e-02 -1.2852007686327434e-02  -1.5584093742814273e-01 -5.5842908407789382e-02 -1.3593038613379916e-02  -3.9252879275417964e-02 -1.6107339234249754e-01 -1.0205681827242416e-02  -4.9719361000586236e-02 -1.5748799102959501e-01 -1.7749895295181256e-02  -5.1517900000155180e-02 -4.0111290299158407e-02 -1.5273024931353257e-01  -7.4461956972529594e-02 -2.9426275249680691e-02 -1.4553061868274556e-01  -8.7474188405024925e-02 -1.7569255118148958e-02 -1.4010425418332878e-01  -6.9770312776594484e-02 -1.4982742256928718e-02 -1.4999103348516279e-01  -1.2663351910515627e-01 -9.7064268035866222e-02 -4.6173833897560308e-02  -1.2954415278012910e-01 -9.9150680846857187e-02 -3.1258000899627915e-02  -1.2067039921983458e-01 -1.0803792627962240e-01 -3.6824479136917339e-02  -1.3584957387719537e-01 -8.7984979531352106e-02 -3.7324210962615220e-02  -1.3792776363614022e-02 -3.1925929053733267e-02 -1.6241955653853832e-01  -1.5627320617818127e-02 -1.2669051547971747e-02 -1.6487864989632972e-01  -2.9242101595760624e-02 -1.9880278383196590e-02 -1.6229394060202973e-01  -9.2619978033678663e-02 -6.0424624167483287e-02 -1.2393517035147714e-01  -7.4013916474788666e-02 -6.4980372191565952e-02 -1.3374960435693381e-01  -1.3388261193435061e-01 -8.1808062432272427e-02 -5.4519730626383246e-02  -1.2202523274263638e-01 -9.3424637592894585e-02 -6.3017279388876093e-02  -1.0672117391459997e-01 -4.8237375680879983e-02 -1.1778504063654188e-01  -1.1677309835240918e-01 -5.0872690242950457e-02 -1.0660944349757166e-01  -1.0531030373510819e-01 -6.2617408045057929e-02 -1.1215321815148939e-01  -6.0652046189956663e-02 -2.7492265296180630e-02 -1.5216806032407090e-01  -9.9042432959797783e-02 -9.0045023377512134e-02 -9.8346351236004464e-02  -9.1121091023362827e-02 -8.4474844235586252e-02 -1.1022930501064618e-01  -9.8342821123420424e-02 -1.0737953115537058e-01 -7.9924064232793329e-02  -3.1204143646846556e-02 -3.7195943713822149e-02 -1.5884687014303497e-01  -1.7012544923431645e-02 -5.1374067570284870e-02 -1.5703768245480182e-01  -3.8776321856597670e-02 -1.0776606278590003e-02 -1.6115206720260680e-01  -8.1176901163696122e-02 -1.4409059593783191e-01 -1.5420760658909585e-02  -9.5389729295740272e-02 -1.3526851951930752e-01 -1.3886890539573184e-02  -1.5475668345333632e-01 -1.3935165649055370e-02 -5.8700865471127073e-02  -1.5799220127380045e-01 -2.6424614364053085e-02 -4.3929200921555944e-02  -9.0608988595720738e-02 -1.1818908176534378e-01 -7.3558632458593814e-02  -1.5075787978984925e-01 -6.4246288319347061e-02 -2.7093349868673997e-02  -1.4791473547644787e-01 -2.1247070817138208e-02 -7.2522149439084402e-02  -1.5109734929225133e-01 -3.2466331229451355e-02 -6.0869648301204143e-02  -8.1548012893651892e-02 -7.7047439915720592e-02 -1.2248718977622980e-01  -8.0069513954721241e-02 -8.9675602948838987e-02 -1.1461514780628629e-01  -6.9462246407978254e-02 -8.5930418915980356e-02 -1.2401780284706959e-01  -1.2202470258956047e-01 -1.5802214995178601e-02 -1.1157899277576760e-01  -1.3418084615538153e-01 -1.6134450145108108e-02 -9.6565200375033064e-02  -4.3208588357514531e-02 -2.4512893438394811e-02 -1.5849847196054961e-01  -5.4219825651725582e-02 -1.2705279765060381e-02 -1.5648798597266225e-01  -7.6249082463228826e-02 -1.2331151060661844e-01 -8.1054450729572347e-02  -1.0175527442888213e-01 -1.1404065127651812e-01 -6.5039436600835318e-02  -1.1103290480582645e-01 -1.0118721638330520e-01 -7.0868639037672196e-02  -1.1590034579388732e-01 -9.0067452091076694e-02 -7.7746450378355120e-02  -1.2539867144438568e-01 -8.0458177888684354e-02 -7.3424581765528393e-02  -1.2809806573155629e-02 -1.1433838206743815e-01 -1.1980081420205052e-01  -1.7058879690858141e-02 -1.2488514734661221e-01 -1.0817692427772010e-01  -1.5988026259406940e-01 -3.4748111151393257e-02 -2.8643636492368649e-02  -1.6321010129390107e-01 -2.7261609899396157e-02 -1.4453395018604976e-02  -1.6026092651100998e-01 -4.1394867543122084e-02 -1.3875026239352817e-02  -1.6234893939009978e-01 -1.8801035390219840e-02 -2.9647368082557444e-02  -1.2685962065823528e-01 -5.1911316281727723e-02 -9.3815833018461234e-02  -1.1613274692988038e-01 -6.5071155375297021e-02 -9.9340143926684929e-02  -1.5467009224495545e-01 -4.2292607388907215e-02 -4.3336658621046915e-02  -1.1607849945709002e-02 -1.3434621406030797e-01 -9.6984278597454954e-02  -2.8821162710851420e-02 -1.3394100332573322e-01 -9.3907743739870680e-02  -5.6379536596262735e-02 -9.3349265365557585e-02 -1.2528640338726740e-01  -1.1357859136636238e-01 -8.0480780398111101e-02 -9.0621647389898502e-02  -1.0331512608545801e-01 -7.6317314961207292e-02 -1.0531470336106688e-01  -1.8875056284993363e-02 -1.4290024902484347e-01 -8.2539492923483934e-02  -3.7028383609222330e-02 -1.4123999733315290e-01 -7.9181151607281980e-02  -2.7978889338687682e-02 -1.4924891340865351e-01 -6.7315888954832176e-02  -1.0594966052129287e-01 -9.5408512183935909e-02 -8.5214008287635812e-02  -9.4805942321868661e-02 -7.2957794956934274e-02 -1.1523251722874363e-01  -1.5603865194074981e-01 -4.9423290258673647e-02 -2.8263995274013898e-02  -1.9931464775200164e-02 -1.5634210450266697e-01 -5.2434334230217698e-02  -3.7116449714376477e-02 -1.5346232598125847e-01 -5.1586395636995595e-02  -2.9796930512615401e-02 -1.5901874525863385e-01 -3.7611820238768238e-02  -4.8991375499396798e-02 -1.5463973488314253e-01 -3.5718978499817290e-02  -4.3928587039578366e-02 -1.3222653627495512e-01 -9.0420927672216836e-02  -3.6182945871202729e-02 -1.2436464037010841e-01 -1.0398911774382806e-01  -1.4355265632099651e-01 -7.9020950088728920e-02 -2.7163854685762691e-02  -1.4338647496226861e-01 -7.3550955623177233e-02 -4.0251032624274069e-02  -1.4061763503838492e-01 -2.5161561579929707e-02 -8.4754237307540670e-02  -1.4350696407433755e-01 -3.5473029744745463e-02 -7.5743361131665368e-02  -1.3429678742840404e-01 -3.5779586826428803e-02 -9.0960517365865509e-02  -1.3717824406715273e-01 -5.1888108104786730e-02 -7.7970250366933391e-02  -1.3564958195147259e-01 -9.3245339789748749e-02 -2.2228786996550846e-02  -1.4175392255499039e-01 -8.5688956955431883e-02 -1.2362534316240103e-02  -1.3459543810462413e-01 -9.6795563405246740e-02 -1.0215151894867023e-02  -6.9265753783008657e-02 -9.9428709359601020e-02 -1.1360278595601031e-01  -1.5032724599210481e-01 -5.7455883041199661e-02 -4.1111135584216398e-02  -1.2662400301598239e-01 -1.0560093698014007e-01 -2.0110748635199283e-02  -5.9616530102140158e-02 -1.5463426704012626e-01 -1.1121307267189511e-02  -1.4218306910153808e-01 -6.8071727920652081e-02 -5.2343287821117315e-02  -4.3139108682440870e-02 -1.0081337974778906e-01 -1.2476035686947730e-01  -2.7446031708129769e-02 -9.4403321149053865e-02 -1.3388160539339972e-01  -3.1883189898000347e-02 -1.0591564331949217e-01 -1.2391486026188370e-01  -4.3149613336121447e-02 -1.1458950046566449e-01 -1.1223561418225461e-01  -2.7066194455927159e-02 -1.1534451571955132e-01 -1.1641562137322495e-01  -1.1795880151416718e-01 -3.4263580141836107e-02 -1.1180913796562281e-01  -1.1255455817439955e-01 -2.2748912441544780e-02 -1.2001495658346394e-01  -1.4821141110844432e-01 -5.1028025202031514e-02 -5.4946897698518196e-02  -1.0200893066495711e-01 -1.6235701762923219e-02 -1.3007781147816178e-01  -1.0559661391751704e-01 -3.2907318779074046e-02 -1.2391958072039667e-01  -1.1083028484935689e-01 -1.0232290608765978e-02 -1.2329497248190040e-01  -1.4490146576245114e-01 -4.5257881853616379e-02 -6.7415999605281773e-02  -1.4215317700453978e-01 -5.8155831722432744e-02 -6.3245757087530052e-02  -8.7102609652241217e-02 -1.3877062704213475e-01 -2.7302448271829448e-02  -9.3461965581726619e-02 -1.3167686504703041e-01 -3.8931071233530484e-02  -9.9587430293340592e-02 -1.3023979808657282e-01 -2.6636977456613999e-02  -8.2374701448322804e-02 -1.3719845832587518e-01 -4.4503040164271181e-02  -8.1304669305378760e-02 -1.277157