<?xml version="1.0"?>
<VTKFile type="UnstructuredGrid"  version="0.1"  >
<UnstructuredGrid>
<Piece  NumberOfPoints="597" NumberOfCells="2124">
<Points>
<DataArray  type="Float64"  NumberOfComponents="3"  format="ascii">0 0 0  1 0 0  0 1 0  0 0 1  0.09999999999981467 0 0  0.1999999999995579 0 0  0.2999999999992664 0 0  0.3999999999989749 0 0  0.4999999999986943 0 0  0.5999999999989468 0 0  0.69999999999921 0 0  0.7999999999994734 0 0  0.8999999999997368 0 0  0 0.09999999999981467 0  0 0.1999999999995579 0  0 0.2999999999992664 0  0 0.3999999999989749 0  0 0.4999999999986943 0  0 0.5999999999989468 0  0 0.69999999999921 0  0 0.7999999999994734 0  0 0.8999999999997368 0  0 0 0.09999999999981467  0 0 0.1999999999995579  0 0 0.2999999999992664  0 0 0.3999999999989749  0 0 0.4999999999986943  0 0 0.5999999999989468  0 0 0.69999999999921  0 0 0.7999999999994734  0 0 0.8999999999997368  0.9951847266502585 0.09801714055230534 0  0.9807852803038259 0.1950903225158687 0  0.9569403355024331 0.2902846780119318 0  0.9238795320817892 0.3826834334019886 0  0.8819212636904032 0.4713967380569389 0  0.8314696113679687 0.5555702344182949 0  0.7730104520841969 0.6343932857215511 0  0.7071067795733449 0.7071067827997501 0  0.634393282646958 0.7730104546074502 0  0.5555702316245595 0.8314696132346829 0  0.471396735522105 0.8819212650453002 0  0.3826834312318057 0.9238795329807084 0  0.2902846763682919 0.9569403360010258 0  0.1950903214145686 0.980785280522888 0  0.0980171400302339 0.995184726701678 0  0.9951847266502585 0 0.09801714055230534  0.9807852803038259 0 0.1950903225158687  0.9569403355024331 0 0.2902846780119318  0.9238795320817892 0 0.3826834334019886  0.8819212636904032 0 0.4713967380569389  0.8314696113679687 0 0.5555702344182949  0.7730104520841969 0 0.6343932857215511  0.7071067795733449 0 0.7071067827997501  0.634393282646958 0 0.7730104546074502  0.5555702316245595 0 0.8314696132346829  0.471396735522105 0 0.8819212650453002  0.3826834312318057 0 0.9238795329807084  0.2902846763682919 0 0.9569403360010258  0.1950903214145686 0 0.980785280522888  0.0980171400302339 0 0.995184726701678  0 0.9951847266502585 0.09801714055230534  0 0.9807852803038259 0.1950903225158687  0 0.9569403355024331 0.2902846780119318  0 0.9238795320817892 0.3826834334019886  0 0.8819212636904032 0.4713967380569389  0 0.8314696113679687 0.5555702344182949  0 0.7730104520841969 0.6343932857215511  0 0.7071067795733449 0.7071067827997501  0 0.634393282646958 0.7730104546074502  0 0.5555702316245595 0.8314696132346829  0 0.471396735522105 0.8819212650453002  0 0.3826834312318057 0.9238795329807084  0 0.2902846763682919 0.9569403360010258  0 0.1950903214145686 0.980785280522888  0 0.0980171400302339 0.995184726701678  0.09240154966779951 0 0.3658235692199516  0.07916357488785433 0 0.4469199030523527  0.1536813483092524 0 0.4301465381022301  0.2555379022644893 0 0.09556049568595243  0.1864593291765566 0 0.2034979771761179  0.301651764011142 0 0.1939053326038485  0.1881720785854029 0 0.3302588474155368  0.08403438330774521 0 0.6437268466185475  0.09138388892861184 0 0.5324072873297468  0.1930859140709486 0 0.7878139522981464  0.2165176696171426 0 0.900824597607195  0.292033522918994 0 0.8485491372975176  0.8037370491763215 0 0.0819245024222376  0.13014171782822 0 0.8868491929551598  0.08390174260734276 0 0.8253161934654943  0.0912526277304111 0 0.7448765232291942  0.8893622411880446 0 0.270275215225845  0.8593018882538136 0 0.1801969264281539  0.8024703672696746 0 0.2475353432181931  0.3476914857890963 0 0.4125368919261175  0.2997235777995208 0 0.3096876237048341  0.2490386282757974 0 0.412527605219857  0.4554126154120848 0 0.2518749964366375  0.39715257119151 0 0.3258159451822259  0.4883877361055989 0 0.3266984434363212  0.08966539318254355 0 0.2701713986717769  0.08377502767602918 0 0.164580120521203  0.3869558528229924 0 0.8037364723405749  0.1791913905804899 0 0.6945879747883159  0.1628348997531483 0 0.5951991143072877  0.2434219731662663 0 0.6106761106298939  0.3204481765543245 0 0.6201302437713152  0.2846206283417919 0 0.7159219267704837  0.3832252637688779 0 0.6893291551637116  0.1561812521325313 0 0.09527745928338882  0.8122499659106144 0 0.3273472587872134  0.2026260329838435 0 0.5147603927306801  0.3051207491780334 0 0.5196560474248884  0.5886190882535927 0 0.5879547877726188  0.5628286668856228 0 0.4841066442899339  0.4793970684942127 0 0.5419440173923771  0.4015076433379883 0 0.1595345792024606  0.4550663848726773 0 0.08400234057127416  0.3574412370957718 0 0.08514557536940835  0.4777735346904641 0 0.6420237002140541  0.5886050303809575 0 0.712791733722679  0.7032448955145116 0 0.5547060123784804  0.3710082806848816 0 0.2384994559961529  0.6343947712920404 0 0.1960314230465952  0.7205780420889929 0 0.2811987241304542  0.745939430962431 0 0.1834190974026157  0.6797060130425652 0 0.1027709852058109  0.5617353506566283 0 0.09368054426051139  0.5099863318045709 0 0.1736146479983669  0.767516113391133 0 0.4796577434100839  0.6547738563668709 0 0.4463662193850245  0.4595209371514753 0 0.4253249285837939  0.3873123962753185 0 0.4899626124422253  0.3876250349852705 0 0.5839247669697213  0.07755778095112512 0 0.07322480571131515  0.6662618639536104 0 0.6404224526940073  0.6281317226641706 0 0.5172795154653362  0.5467991787548994 0 0.2775110285514451  0.6382784164401777 0 0.32558335190295  0.7209625386664502 0 0.3760300013763025  0.4777689774710401 0 0.7650512433185178  0.8150026845526732 0 0.4083495007681245  0.5566757769165783 0 0.3852531587967231  0.08307535298787436 0 0.9466352209487393  0.9264479164039098 0 0.09196696687313166  0.2397696045481275 0 0.2516617606603849  0.08142379610690136 0.4255946222877561 0.9012432429190713  0.09186671735860186 0.5103340042487068 0.8550553843753256  0.9658493887414453 0.07517233868428744 0.2479598309495128  0.2588669386047153 0.4173196613385269 0.8711097567802347  0.349931687668115 0.4640670731596268 0.8137503091088829  0.2521091443082024 0.5198490772623717 0.8162094806026494  0.3381706165708041 0.3470207631890471 0.8747669541105296  0.4127313919422814 0.6915412096022421 0.5928098797483512  0.505094034203222 0.6002477622197614 0.6201472732847281  0.5053541985510116 0.6749299798537994 0.5376677936248502  0.5711974176563547 0.6081084457949028 0.5513053856218164  0.2265606352222516 0.3190644824037021 0.9202543858282597  0.1657801920411619 0.4763492767397394 0.8634861287110075  0.1656568208377873 0.3895779149708851 0.9059728836322062  0.501344556404584 0.2277556352228774 0.8347340932223356  0.4415367071350051 0.3068779784495727 0.8431318061816198  0.4059460944519277 0.2465220798785426 0.8800196773547647  0.6196876017566089 0.7450935593761555 0.2466229186537899  0.627698728320387 0.714123017011242 0.3098751733194038  0.6711018023358704 0.69515091935471 0.2576578549585624  0.5155953815884997 0.3094099022200982 0.7990162169147497  0.899989132227882 0.4289906012996104 0.07737328911389559  0.9382293875188548 0.3361973257557999 0.08183504475860598  0.2363183186651487 0.9697312279355392 0.06144101097726593  0.2993323950146074 0.9481462475789452 0.106858834434898  0.3101615066201264 0.2414838162804179 0.9195028038487859  0.4482922838801319 0.1771577048152243 0.8761559084079369  0.5266326972169642 0.1057746683003005 0.8434866458741044  0.4200451415729211 0.09020206018716082 0.9030092288448531  0.7623891105001969 0.5843698709159578 0.2779832695620105  0.7799115838824263 0.596929282445646 0.1881843592994147  0.7264879983305693 0.6504346235700518 0.2216979673856474  0.8178732076005444 0.5297083005156807 0.2247054353013872  0.08303734348179403 0.1922053315992417 0.9778353184930026  0.09408269694107538 0.07627092328721888 0.9926385003601306  0.1760515877647063 0.1196852712822077 0.9770779264130525  0.5576143975194612 0.3637809431371279 0.7461431558952143  0.4455986119305068 0.3912097319557027 0.8052309126385754  0.8060332204752099 0.4925189261569118 0.3282309474556054  0.7346451337886817 0.5624574787189985 0.379391765901261  0.642508165502269 0.2904084282097414 0.7091164940174894  0.7030254185009037 0.306273768786429 0.6418345888895255  0.6340141384684502 0.3769833468372913 0.6752108029567235  0.365152486570974 0.1655128603952953 0.9161163433728284  0.5962792236506059 0.542109883053058 0.5920877993497508  0.5485896415631504 0.5085733599282969 0.6636283167111371  0.5920678220815722 0.6464708649476155 0.4811768020483384  0.1878625042731283 0.2239323962641036 0.9563273296270713  0.1024217313722561 0.3092935774102874 0.9454349644028699  0.2334505071908325 0.06487815783086033 0.9702018786463037  0.4887206245964966 0.8674866792832123 0.09283863613924619  0.5742874233407752 0.8143734795796027 0.08360497084518105  0.9317006522490203 0.08389294215323394 0.3534060962343804  0.951181716421189 0.1590863374964037 0.2644709427669156  0.5455072387620422 0.7115493400103802 0.4428536882413925  0.9076276342048921 0.3867895805147213 0.1631131448807132  0.8905082493452895 0.127913990281725 0.4366154703376809  0.9096700297655037 0.1954608695184058 0.3664634844476816  0.4909557921631998 0.4638599224188366 0.7374255098075979  0.4820557633059458 0.5398846258057163 0.6900339353119844  0.4181956098394346 0.5173376920524271 0.7466419116905315  0.7346402167242096 0.09513558808181954 0.67175365414096  0.8078263850243458 0.09713596463829366 0.5813614504181416  0.2601336813274003 0.1475738587985683 0.954228706358363  0.3264256065230105 0.07648882390671821 0.9421230191559125  0.4590556119879899 0.7423895417623142 0.4879812633537003  0.6126112913498895 0.686574629053208 0.3915644065170771  0.6684671903139626 0.6091898762120843 0.4266606499250449  0.6977699223891808 0.542245960309553 0.4680667195357594  0.7549550374165268 0.4843931863016896 0.4420476586793638  0.07712060794257616 0.6883652307079324 0.7212528828247291  0.1027005936763692 0.7518617879958691 0.6512729380299598  0.9625479306552708 0.2091983633587219 0.1724457188778192  0.9825939555666527 0.1641265719497667 0.08701486576382911  0.964839163020035 0.2492141217550538 0.08353269432177644  0.97740960683
[...]
<PointData  Vectors="Solid displacement [m]"> 
<DataArray  type="Float64"  Name="Solid displacement [m]"  NumberOfComponents="3" format="ascii">0.0000000000000000e+00 0.0000000000000000e+00 0.0000000000000000e+00  -1.6639724536503903e-01 0.0000000000000000e+00 0.0000000000000000e+00  0.0000000000000000e+00 -1.6639722854898834e-01 0.0000000000000000e+00  0.0000000000000000e+00 0.0000000000000000e+00 -1.6639730553364906e-01  -1.6609545769567698e-02 0.0000000000000000e+00 0.0000000000000000e+00  -3.3221708206204105e-02 0.0000000000000000e+00 0.0000000000000000e+00  -4.9838300405341776e-02 0.0000000000000000e+00 0.0000000000000000e+00  -6.6461411491722341e-02 0.0000000000000000e+00 0.0000000000000000e+00  -8.3092858311188567e-02 0.0000000000000000e+00 0.0000000000000000e+00  -9.9733653360580765e-02 0.0000000000000000e+00 0.0000000000000000e+00  -1.1638458442757382e-01 0.0000000000000000e+00 0.0000000000000000e+00  -1.3304578841295892e-01 0.0000000000000000e+00 0.0000000000000000e+00  -1.4971694120644699e-01 0.0000000000000000e+00 0.0000000000000000e+00  0.0000000000000000e+00 -1.6609575090899973e-02 0.0000000000000000e+00  0.0000000000000000e+00 -3.3221549530799546e-02 0.0000000000000000e+00  0.0000000000000000e+00 -4.9838121909990846e-02 0.0000000000000000e+00  0.0000000000000000e+00 -6.6461371011990997e-02 0.0000000000000000e+00  0.0000000000000000e+00 -8.3092808201198645e-02 0.0000000000000000e+00  0.0000000000000000e+00 -9.9733625402353560e-02 0.0000000000000000e+00  0.0000000000000000e+00 -1.1638454766141415e-01 0.0000000000000000e+00  0.0000000000000000e+00 -1.3304581360903742e-01 0.0000000000000000e+00  0.0000000000000000e+00 -1.4971703164719968e-01 0.0000000000000000e+00  0.0000000000000000e+00 0.0000000000000000e+00 -1.6609558382074497e-02  0.0000000000000000e+00 0.0000000000000000e+00 -3.3221660773149427e-02  0.0000000000000000e+00 0.0000000000000000e+00 -4.9838197997020425e-02  0.0000000000000000e+00 0.0000000000000000e+00 -6.6461339902277469e-02  0.0000000000000000e+00 0.0000000000000000e+00 -8.3092812880805458e-02  0.0000000000000000e+00 0.0000000000000000e+00 -9.9733617466603364e-02  0.0000000000000000e+00 0.0000000000000000e+00 -1.1638449536959557e-01  0.0000000000000000e+00 0.0000000000000000e+00 -1.3304575612267502e-01  0.0000000000000000e+00 0.0000000000000000e+00 -1.4971702489990205e-01  -1.6559601346941388e-01 -1.6309839165998544e-02 0.0000000000000000e+00  -1.6319997538691533e-01 -3.2462529027735561e-02 0.0000000000000000e+00  -1.5923220685842376e-01 -4.8302616485783094e-02 0.0000000000000000e+00  -1.5373094660962675e-01 -6.3677475596853189e-02 0.0000000000000000e+00  -1.4674922410801178e-01 -7.8439073848155752e-02 0.0000000000000000e+00  -1.3835428186848214e-01 -9.2445303054409872e-02 0.0000000000000000e+00  -1.2862671776763954e-01 -1.0556140499836017e-01 0.0000000000000000e+00  -1.1766056775534592e-01 -1.1766071388999030e-01 0.0000000000000000e+00  -1.0556114733911964e-01 -1.2862691365478041e-01 0.0000000000000000e+00  -9.2445181758868025e-02 -1.3835431200311293e-01 0.0000000000000000e+00  -7.8439166128664028e-02 -1.4674916142338515e-01 0.0000000000000000e+00  -6.3677317965771821e-02 -1.5373096916897858e-01 0.0000000000000000e+00  -4.8302586610682069e-02 -1.5923208170315831e-01 0.0000000000000000e+00  -3.2462492561858652e-02 -1.6319991163345710e-01 0.0000000000000000e+00  -1.6309880690804232e-02 -1.6559601583499892e-01 0.0000000000000000e+00  -1.6559603775773601e-01 0.0000000000000000e+00 -1.6309829172187675e-02  -1.6320001692915548e-01 0.0000000000000000e+00 -3.2462376258605027e-02  -1.5923221950148223e-01 0.0000000000000000e+00 -4.8302650621671064e-02  -1.5373113575171043e-01 0.0000000000000000e+00 -6.3677295887368660e-02  -1.4674933712784644e-01 0.0000000000000000e+00 -7.8439255061185167e-02  -1.3835420436336407e-01 0.0000000000000000e+00 -9.2445594735280218e-02  -1.2862675839486223e-01 0.0000000000000000e+00 -1.0556131135115569e-01  -1.1766075865771851e-01 0.0000000000000000e+00 -1.1766052361623358e-01  -1.0556114193124935e-01 0.0000000000000000e+00 -1.2862703051350410e-01  -9.2445241154828633e-02 0.0000000000000000e+00 -1.3835425123548456e-01  -7.8439217059625477e-02 0.0000000000000000e+00 -1.4674918036315676e-01  -6.3677610364571369e-02 0.0000000000000000e+00 -1.5373104143499694e-01  -4.8302597456338081e-02 0.0000000000000000e+00 -1.5923234974871930e-01  -3.2462226182565827e-02 0.0000000000000000e+00 -1.6320006464977424e-01  -1.6309833780027382e-02 0.0000000000000000e+00 -1.6559611115828404e-01  0.0000000000000000e+00 -1.6559594674949982e-01 -1.6310108810301278e-02  0.0000000000000000e+00 -1.6319983276759920e-01 -3.2462549683297710e-02  0.0000000000000000e+00 -1.5923197456022045e-01 -4.8302803081537025e-02  0.0000000000000000e+00 -1.5373090199657316e-01 -6.3677363551123467e-02  0.0000000000000000e+00 -1.4674912642774332e-01 -7.8439077049634098e-02  0.0000000000000000e+00 -1.3835433343356102e-01 -9.2445042160439236e-02  0.0000000000000000e+00 -1.2862670483965441e-01 -1.0556130901073199e-01  0.0000000000000000e+00 -1.1766068292043205e-01 -1.1766041391820803e-01  0.0000000000000000e+00 -1.0556128077690596e-01 -1.2862667946793679e-01  0.0000000000000000e+00 -9.2445229681985208e-02 -1.3835421957500899e-01  0.0000000000000000e+00 -7.8439096626191820e-02 -1.4674917923272796e-01  0.0000000000000000e+00 -6.3677333465269173e-02 -1.5373098188010947e-01  0.0000000000000000e+00 -4.8302586962887008e-02 -1.5923216618557168e-01  0.0000000000000000e+00 -3.2462652169063362e-02 -1.6319997421662352e-01  0.0000000000000000e+00 -1.6310021084240494e-02 -1.6559606046958814e-01  -1.5352267917808013e-02 0.0000000000000000e+00 -6.0780472152192150e-02  -1.3154711555145346e-02 0.0000000000000000e+00 -7.4264722162326227e-02  -2.5537396259270276e-02 0.0000000000000000e+00 -7.1477922567310601e-02  -4.2450425324113472e-02 0.0000000000000000e+00 -1.5874637674951467e-02  -3.0975073237174210e-02 0.0000000000000000e+00 -3.3805525625856647e-02  -5.0117047991806246e-02 0.0000000000000000e+00 -3.2215784453301963e-02  -3.1264374060441379e-02 0.0000000000000000e+00 -5.4871808253276463e-02  -1.3970116886820358e-02 0.0000000000000000e+00 -1.0701470081272065e-01  -1.5188059571765651e-02 0.0000000000000000e+00 -8.8486057460814699e-02  -3.2112576603749859e-02 0.0000000000000000e+00 -1.3102306644820624e-01  -3.6020788107492561e-02 0.0000000000000000e+00 -1.4986498594526812e-01  -4.8580074745719924e-02 0.0000000000000000e+00 -1.4115706165713582e-01  -1.3367011677308843e-01 0.0000000000000000e+00 -1.3624898832058138e-02  -2.1649181193515346e-02 0.0000000000000000e+00 -1.4752786717009833e-01  -1.3954614258250888e-02 0.0000000000000000e+00 -1.3726693133389112e-01  -1.5174015468433333e-02 0.0000000000000000e+00 -1.2386201262357489e-01  -1.4795921736911130e-01 0.0000000000000000e+00 -4.4964494693240466e-02  -1.4293819181378917e-01 0.0000000000000000e+00 -2.9974371346405220e-02  -1.3347088810558150e-01 0.0000000000000000e+00 -4.1171346064807476e-02  -5.7786305044962155e-02 0.0000000000000000e+00 -6.8563490590310791e-02  -4.9803014444817044e-02 0.0000000000000000e+00 -5.1458600149057766e-02  -4.1385127625114315e-02 0.0000000000000000e+00 -6.8553585606373785e-02  -7.5686332485022906e-02 0.0000000000000000e+00 -4.1859897351980133e-02  -6.6003007819770698e-02 0.0000000000000000e+00 -5.4147540635403460e-02  -8.1178788903669072e-02 0.0000000000000000e+00 -5.4303154007655056e-02  -1.4895540985609353e-02 0.0000000000000000e+00 -4.4881989168254248e-02  -1.3915520573225312e-02 0.0000000000000000e+00 -2.7337720878712082e-02  -6.4369560601501105e-02 0.0000000000000000e+00 -1.3370039096692488e-01  -2.9794318528162184e-02 0.0000000000000000e+00 -1.1548985471343995e-01  -2.7067944913322883e-02 0.0000000000000000e+00 -9.8939583538434531e-02  -4.0467890954438680e-02 0.0000000000000000e+00 -1.0152231699954115e-01  -5.3278603168015144e-02 0.0000000000000000e+00 -1.0310459284710070e-01  -4.7330747285916630e-02 0.0000000000000000e+00 -1.1905360855188482e-01  -6.3731187281527310e-02 0.0000000000000000e+00 -1.1463694350031894e-01  -2.5942592908629079e-02 0.0000000000000000e+00 -1.5826123845397191e-02  -1.3511064755087124e-01 0.0000000000000000e+00 -5.4451381794018469e-02  -3.3677397586008705e-02 0.0000000000000000e+00 -8.5555616556063599e-02  -5.0718333049602868e-02 0.0000000000000000e+00 -8.6379121539832779e-02  -9.7899986838813138e-02 0.0000000000000000e+00 -9.7789521027674187e-02  -9.3588174689131609e-02 0.0000000000000000e+00 -8.0498147856260804e-02  -7.9711148501229151e-02 0.0000000000000000e+00 -9.0110999822518634e-02  -6.6715782870303664e-02 0.0000000000000000e+00 -2.6508734127844494e-02  -7.5619763949980573e-02 0.0000000000000000e+00 -1.3958917071022535e-02  -5.9386857099694129e-02 0.0000000000000000e+00 -1.4146435975497329e-02  -7.9457242687491783e-02 0.0000000000000000e+00 -1.0677322132782693e-01  -9.7922230578345357e-02 0.0000000000000000e+00 -1.1858235721951137e-01  -1.1698488902260476e-01 0.0000000000000000e+00 -9.2275500722980616e-02  -6.1648985536416963e-02 0.0000000000000000e+00 -3.9630548866254271e-02  -1.0546724051401789e-01 0.0000000000000000e+00 -3.2589972795555880e-02  -1.1982886845475815e-01 0.0000000000000000e+00 -4.6762161035683564e-02  -1.2404462047512982e-01 0.0000000000000000e+00 -3.0501346301617844e-02  -1.1300682176560121e-01 0.0000000000000000e+00 -1.7086519587886876e-02  -9.3366588504180920e-02 0.0000000000000000e+00 -1.5570710011162140e-02  -8.4759494563089358e-02 0.0000000000000000e+00 -2.8854649881301774e-02  -1.2767976369459297e-01 0.0000000000000000e+00 -7.9793218557238255e-02  -1.0889141859959109e-01 0.0000000000000000e+00 -7.4232403244092762e-02  -7.6387590609764716e-02 0.0000000000000000e+00 -7.0703096140648833e-02  -6.4383952301416497e-02 0.0000000000000000e+00 -8.1447600996584046e-02  -6.4448125984540541e-02 0.0000000000000000e+00 -9.7085636632058894e-02  -1.2882101817536643e-02 0.0000000000000000e+00 -1.2162381167218501e-02  -1.1084135568857052e-01 0.0000000000000000e+00 -1.0654267133583840e-01  -1.0446663565256697e-01 0.0000000000000000e+00 -8.6030467504606481e-02  -9.0893324293607997e-02 0.0000000000000000e+00 -4.6130159605581034e-02  -1.0612701290631397e-01 0.0000000000000000e+00 -5.4135013513261471e-02  -1.1990550125790675e-01 0.0000000000000000e+00 -6.2538735831258088e-02  -7.9478265378965199e-02 0.0000000000000000e+00 -1.2726858751251161e-01  -1.3558179277704990e-01 0.0000000000000000e+00 -6.7931987929909038e-02  -9.2549540818540027e-02 0.0000000000000000e+00 -6.4049880807393017e-02  -1.3821688807399233e-02 0.0000000000000000e+00 -1.5749647180762147e-01  -1.5412964484963573e-01 0.0000000000000000e+00 -1.5300190210170017e-02  -3.9835169875601359e-02 0.0000000000000000e+00 -4.1810838803602535e-02  -1.3548761843288133e-02 -7.0817643040294254e-02 -1.4996436290164278e-01  -1.5286402790234101e-02 -8.4918101431380330e-02 -1.4227879476384733e-01  -1.6071468428201544e-01 -1.2508552553976714e-02 -4.1259905228231690e-02  -4.3074828601621901e-02 -6.9440786153455294e-02 -1.4494993207421064e-01  -5.8227402298337783e-02 -7.7219244181311847e-02 -1.3540564860411977e-01  -4.1950370763729088e-02 -8.6501237117019208e-02 -1.3581480148150391e-01  -5.6270548984355941e-02 -5.7743410796677996e-02 -1.4555849909749360e-01  -6.8677231996486385e-02 -1.1507027611112954e-01 -9.8641787684990365e-02  -8.4045890588287028e-02 -9.9879596722460162e-02 -1.0319062818799429e-01  -8.4089215926571453e-02 -1.1230635302730443e-01 -8.9466438488524438e-02  -9.5045356917621004e-02 -1.0118752967670012e-01 -9.1735709842872729e-02  -3.7699088673850585e-02 -5.3091445640670254e-02 -1.5312758201968016e-01  -2.7585562652676560e-02 -7.9263098630922763e-02 -1.4368155159954904e-01  -2.7564932982329718e-02 -6.4824601337010415e-02 -1.5075126218347565e-01  -8.3422280869196744e-02 -3.7897961596779550e-02 -1.3889737264175678e-01  -7.3470198354873131e-02 -5.1063870291428823e-02 -1.4029466452606604e-01  -6.7548103102299875e-02 -4.1020852367855798e-02 -1.4643274582312238e-01  -1.0311418596536312e-01 -1.2398151619102701e-01 -4.1037400742081294e-02  -1.0444719529522646e-01 -1.1882804363274896e-01 -5.1562556107860695e-02  -1.1166942504638336e-01 -1.1567113325278032e-01 -4.2873592361801278e-02  -8.5793443871908293e-02 -5.1485119473922571e-02 -1.3295399769852706e-01  -1.4975561973284304e-01 -7.1382828028183326e-02 -1.2874799642087903e-02  -1.5611870251991763e-01 -5.5942356003589509e-02 -1.3617188969704796e-02  -3.9322765692168749e-02 -1.6136050224868245e-01 -1.0223734413721569e-02  -4.9808021163731023e-02 -1.5776876940252071e-01 -1.7781256354459048e-02  -5.1609864769336176e-02 -4.0182488127386326e-02 -1.5300256556714389e-01  -7.4594615562809136e-02 -2.9478626467271434e-02 -1.4578992579774291e-01  -8.7630143375575356e-02 -1.7600587817499857e-02 -1.4035387059336488e-01  -6.9894484494036610e-02 -1.5009404687675023e-02 -1.5025826513947010e-01  -1.2685930692934108e-01 -9.7237383597928509e-02 -4.6255866738353656e-02  -1.2977505934204514e-01 -9.9327367723879539e-02 -3.1313519134322787e-02  -1.2088550896760870e-01 -1.0823048014452792e-01 -3.6890007662988111e-02  -1.3609174342535171e-01 -8.8141881671944700e-02 -3.7390531401697027e-02  -1.3817264549517096e-02 -3.1982616657498054e-02 -1.6270903123725827e-01  -1.5655131757996849e-02 -1.2691439650791709e-02 -1.6517236656205159e-01  -2.9294359014594540e-02 -1.9915490259109027e-02 -1.6258309280579269e-01  -9.2785264872320347e-02 -6.0532213646129159e-02 -1.2415608452936321e-01  -7.4146101418743421e-02 -6.5096188864380983e-02 -1.3398806795754295e-01  -1.3412144740195073e-01 -8.1953808493591213e-02 -5.4616795439564290e-02  -1.2224279704934016e-01 -9.3591243899933424e-02 -6.3129657829375768e-02  -1.0691146432562601e-01 -4.8323239240163698e-02 -1.1799497219199383e-01  -1.1698133546668095e-01 -5.0963217288249291e-02 -1.0679945523963738e-01  -1.0549808099105883e-01 -6.2728984624932843e-02 -1.1235313788948670e-01  -6.0760247364345245e-02 -2.7541058282274170e-02 -1.5243921391350876e-01  -9.9219069979180508e-02 -9.0205530405075410e-02 -9.8521685352233934e-02  -9.1283635434198915e-02 -8.4625279062325184e-02 -1.1042582157593468e-01  -9.8518260230391411e-02 -1.0757091700505364e-01 -8.0066483240073191e-02  -3.1259774295952981e-02 -3.7261964422755346e-02 -1.5913007455247560e-01  -1.7042771735190566e-02 -5.1465601821595930e-02 -1.5731763796612036e-01  -3.8845469580760891e-02 -1.0795670911867202e-02 -1.6143905510528705e-01  -8.1321658401402749e-02 -1.4434736488326666e-01 -1.5448161658883457e-02  -9.5559772537585311e-02 -1.3550951983061585e-01 -1.3911635424448303e-02  -1.5503242348212662e-01 -1.3959764020750881e-02 -5.8805637418499673e-02  -1.5827387018335601e-01 -2.6471608607708499e-02 -4.4007348867569435e-02  -9.0770679038259805e-02 -1.1839976355364414e-01 -7.3689664067123142e-02  -1.5102662317057577e-01 -6.4360739774750514e-02 -2.7141599937076138e-02  -1.4817819892353487e-01 -2.1284722426175833e-02 -7.2651495507366617e-02  -1.5136657936981845e-01 -3.2524163901926029e-02 -6.0978319302798470e-02  -8.1693511463879986e-02 -7.7184874334380899e-02 -1.2270550733424536e-01  -8.0212479367688189e-02 -8.9835347926202527e-02 -1.1481956537258733e-01  -6.9586319231420279e-02 -8.6083548198792242e-02 -1.2423897533939911e-01  -1.2224211542889858e-01 -1.5830333660593984e-02 -1.1177788333149738e-01  -1.3442000959482434e-01 -1.6163176524171360e-02 -9.6737093248904574e-02  -4.3285550999144794e-02 -2.4556210062032676e-02 -1.5878095798555070e-01  -5.4316374758209836e-02 -1.2727714222221147e-02 -1.5676674044867295e-01  -7.6385281002813388e-02 -1.2353140789472483e-01 -8.1198801527776393e-02  -1.0193671153031250e-01 -1.1424399337626920e-01 -6.5155278407203324e-02  -1.1123092850144019e-01 -1.0136751347656073e-01 -7.0995039912960425e-02  -1.1610692694455418e-01 -9.0228090418861082e-02 -7.7884995793556455e-02  -1.2562227928602129e-01 -8.0601617857675278e-02 -7.3555462842793004e-02  -1.2832644376658257e-02 -1.1454209206921984e-01 -1.2001438797960348e-01  -1.7089180982759886e-02 -1.2510769911147726e-01 -1.0836985560143697e-01  -1.6016523337757960e-01 -3.4810028104252079e-02 -2.8694578417946325e-02  -1.6350091680801498e-01 -2.7310197331795957e-02 -1.4479088078299633e-02  -1.6054652971621988e-01 -4.1468581670945200e-02 -1.3899675965120329e-02  -1.6263823883357659e-01 -1.8834471839279335e-02 -2.9700201782746301e-02  -1.2708578777260920e-01 -5.2003633422315572e-02 -9.3983135428530276e-02  -1.1633979848447001e-01 -6.5187008729900991e-02 -9.9517328557837681e-02  -1.5494579313233028e-01 -4.2368019380848804e-02 -4.3413842359132683e-02  -1.1628372596787584e-02 -1.3458557727064510e-01 -9.7157228660524633e-02  -2.8872570930896374e-02 -1.3417978537780070e-01 -9.4075207348375461e-02  -5.6480110261775379e-02 -9.3515762328260532e-02 -1.2550991363301603e-01  -1.1378103857057670e-01 -8.0624322583111960e-02 -9.0783191548254996e-02  -1.0349927854548295e-01 -7.6453285890750025e-02 -1.0550254984174663e-01  -1.8908731021926219e-02 -1.4315498123931880e-01 -8.2686736295403143e-02  -3.7094429414220705e-02 -1.4149182471795432e-01 -7.9322383392030377e-02  -2.8028763873732064e-02 -1.4951506226910921e-01 -6.7435929829251368e-02  -1.0613859861827132e-01 -9.5578594821828192e-02 -8.5365843442699263e-02  -9.4975080003470255e-02 -7.3087856020252612e-02 -1.1543784244011825e-01  -1.5631679286666214e-01 -4.9511344294467706e-02 -2.8314314508467983e-02  -1.9966999801020412e-02 -1.5662094628594583e-01 -5.2527744108227623e-02  -3.7182575078025908e-02 -1.5373602801551745e-01 -5.1678368699516905e-02  -2.9849976234279148e-02 -1.5930239409886210e-01 -3.7678743363186350e-02  -4.9078815328971119e-02 -1.5491558523541460e-01 -3.5782447679111616e-02  -4.4006801362392330e-02 -1.3246228585698225e-01 -9.0582182405006567e-02  -3.6247453313032300e-02 -1.2458637161081890e-01 -1.0417455579806884e-01  -1.4380856005560044e-01 -7.9161824750482376e-02 -2.7212218790514352e-02  -1.4364211176555597e-01 -7.3681979823579880e-02 -4.0322698851110582e-02  -1.4086815979948289e-01 -2.5206229231465496e-02 -8.4905136141477391e-02  -1.4376272028923148e-01 -3.5536060219395947e-02 -7.5878279136323584e-02  -1.3453616867175919e-01 -3.5843093279410279e-02 -9.1122594128026618e-02  -1.3742285446732599e-01 -5.1980435887405980e-02 -7.8109034180094114e-02  -1.3589127052521272e-01 -9.3411576539561655e-02 -2.2268251746694046e-02  -1.4200648965631038e-01 -8.5841764147872937e-02 -1.2384475866241022e-02  -1.3483528334351039e-01 -9.6967935417488146e-02 -1.0233302512345407e-02  -6.9389435159468438e-02 -9.9605887017032005e-02 -1.1380556101869556e-01  -1.5059519529587512e-01 -5.7558230357238685e-02 -4.1184400866910609e-02  -1.2684970002520354e-01 -1.0578900842786371e-01 -2.0146522999591666e-02  -5.9722951455764617e-02 -1.5490983698321079e-01 -1.1141019329607446e-02  -1.4243653155887084e-01 -6.8192917415284562e-02 -5.2436511534546100e-02  -4.3215840659161515e-02 -1.0099321451157608e-01 -1.2498289092354807e-01  -2.7494741914626641e-02 -9.4571697296231744e-02 -1.3412023355661534e-01  -3.1939819615432859e-02 -1.0610443460640866e-01 -1.2413581152284965e-01  -4.3226435593161174e-02 -1.1479390768644268e-01 -1.1243575759271439e-01  -2.7114293263283677e-02 -1.1555007894382953e-01 -1.1662327061303408e-01  -1.1816915806571084e-01 -3.4324508282233851e-02 -1.1200839976705615e-01  -1.1275511146655783e-01 -2.2789302987509828e-02 -1.2022883316980941e-01  -1.4847546616599958e-01 -5.1118952233764142e-02 -5.5044837874329344e-02  -1.0219084822313561e-01 -1.6264619842720623e-02 -1.3030941915059782e-01  -1.0578482075998541e-01 -3.2965779125988047e-02 -1.2414045856863631e-01  -1.1102769130151741e-01 -1.0250440766324665e-02 -1.2351458933972939e-01  -1.4515966312101616e-01 -4.5338513741704480e-02 -6.7536134100929929e-02  -1.4240653978103360e-01 -5.8259297530378173e-02 -6.3358357562412371e-02  -8.7257955940729215e-02 -1.3901792989900302e-01 -2.7351001726089744e-02  -9.3628693481710171e-02 -1.3191152349860261e-01 -3.9000325944400283e-02  -9.9764932377786830e-02 -1.3047192430531401e-01 -2.6684362874784658e-02  -8.2521678846027138e-02 -1.3744302886284179e-01 -4.4582252879432106e-02  -8.1449742717356735e-02 -1.279434