<?xml version="1.0"?>
<VTKFile type="UnstructuredGrid"  version="0.1"  >
<UnstructuredGrid>
<Piece  NumberOfPoints="597" NumberOfCells="2124">
<Points>
<DataArray  type="Float64"  NumberOfComponents="3"  format="ascii">0 0 0  1 0 0  0 1 0  0 0 1  0.09999999999981467 0 0  0.1999999999995579 0 0  0.2999999999992664 0 0  0.3999999999989749 0 0  0.4999999999986943 0 0  0.5999999999989468 0 0  0.69999999999921 0 0  0.7999999999994734 0 0  0.8999999999997368 0 0  0 0.09999999999981467 0  0 0.1999999999995579 0  0 0.2999999999992664 0  0 0.3999999999989749 0  0 0.4999999999986943 0  0 0.5999999999989468 0  0 0.69999999999921 0  0 0.7999999999994734 0  0 0.8999999999997368 0  0 0 0.09999999999981467  0 0 0.1999999999995579  0 0 0.2999999999992664  0 0 0.3999999999989749  0 0 0.4999999999986943  0 0 0.5999999999989468  0 0 0.69999999999921  0 0 0.7999999999994734  0 0 0.8999999999997368  0.9951847266502585 0.09801714055230534 0  0.9807852803038259 0.1950903225158687 0  0.9569403355024331 0.2902846780119318 0  0.9238795320817892 0.3826834334019886 0  0.8819212636904032 0.4713967380569389 0  0.8314696113679687 0.5555702344182949 0  0.7730104520841969 0.6343932857215511 0  0.7071067795733449 0.7071067827997501 0  0.634393282646958 0.7730104546074502 0  0.5555702316245595 0.8314696132346829 0  0.471396735522105 0.8819212650453002 0  0.3826834312318057 0.9238795329807084 0  0.2902846763682919 0.9569403360010258 0  0.1950903214145686 0.980785280522888 0  0.0980171400302339 0.995184726701678 0  0.9951847266502585 0 0.09801714055230534  0.9807852803038259 0 0.1950903225158687  0.9569403355024331 0 0.2902846780119318  0.9238795320817892 0 0.3826834334019886  0.8819212636904032 0 0.4713967380569389  0.8314696113679687 0 0.5555702344182949  0.7730104520841969 0 0.6343932857215511  0.7071067795733449 0 0.7071067827997501  0.634393282646958 0 0.7730104546074502  0.5555702316245595 0 0.8314696132346829  0.471396735522105 0 0.8819212650453002  0.3826834312318057 0 0.9238795329807084  0.2902846763682919 0 0.9569403360010258  0.1950903214145686 0 0.980785280522888  0.0980171400302339 0 0.995184726701678  0 0.9951847266502585 0.09801714055230534  0 0.9807852803038259 0.1950903225158687  0 0.9569403355024331 0.2902846780119318  0 0.9238795320817892 0.3826834334019886  0 0.8819212636904032 0.4713967380569389  0 0.8314696113679687 0.5555702344182949  0 0.7730104520841969 0.6343932857215511  0 0.7071067795733449 0.7071067827997501  0 0.634393282646958 0.7730104546074502  0 0.5555702316245595 0.8314696132346829  0 0.471396735522105 0.8819212650453002  0 0.3826834312318057 0.9238795329807084  0 0.2902846763682919 0.9569403360010258  0 0.1950903214145686 0.980785280522888  0 0.0980171400302339 0.995184726701678  0.09240154966779951 0 0.3658235692199516  0.07916357488785433 0 0.4469199030523527  0.1536813483092524 0 0.4301465381022301  0.2555379022644893 0 0.09556049568595243  0.1864593291765566 0 0.2034979771761179  0.301651764011142 0 0.1939053326038485  0.1881720785854029 0 0.3302588474155368  0.08403438330774521 0 0.6437268466185475  0.09138388892861184 0 0.5324072873297468  0.1930859140709486 0 0.7878139522981464  0.2165176696171426 0 0.900824597607195  0.292033522918994 0 0.8485491372975176  0.8037370491763215 0 0.0819245024222376  0.13014171782822 0 0.8868491929551598  0.08390174260734276 0 0.8253161934654943  0.0912526277304111 0 0.7448765232291942  0.8893622411880446 0 0.270275215225845  0.8593018882538136 0 0.1801969264281539  0.8024703672696746 0 0.2475353432181931  0.3476914857890963 0 0.4125368919261175  0.2997235777995208 0 0.3096876237048341  0.2490386282757974 0 0.412527605219857  0.4554126154120848 0 0.2518749964366375  0.39715257119151 0 0.3258159451822259  0.4883877361055989 0 0.3266984434363212  0.08966539318254355 0 0.2701713986717769  0.08377502767602918 0 0.164580120521203  0.3869558528229924 0 0.8037364723405749  0.1791913905804899 0 0.6945879747883159  0.1628348997531483 0 0.5951991143072877  0.2434219731662663 0 0.6106761106298939  0.3204481765543245 0 0.6201302437713152  0.2846206283417919 0 0.7159219267704837  0.3832252637688779 0 0.6893291551637116  0.1561812521325313 0 0.09527745928338882  0.8122499659106144 0 0.3273472587872134  0.2026260329838435 0 0.5147603927306801  0.3051207491780334 0 0.5196560474248884  0.5886190882535927 0 0.5879547877726188  0.5628286668856228 0 0.4841066442899339  0.4793970684942127 0 0.5419440173923771  0.4015076433379883 0 0.1595345792024606  0.4550663848726773 0 0.08400234057127416  0.3574412370957718 0 0.08514557536940835  0.4777735346904641 0 0.6420237002140541  0.5886050303809575 0 0.712791733722679  0.7032448955145116 0 0.5547060123784804  0.3710082806848816 0 0.2384994559961529  0.6343947712920404 0 0.1960314230465952  0.7205780420889929 0 0.2811987241304542  0.745939430962431 0 0.1834190974026157  0.6797060130425652 0 0.1027709852058109  0.5617353506566283 0 0.09368054426051139  0.5099863318045709 0 0.1736146479983669  0.767516113391133 0 0.4796577434100839  0.6547738563668709 0 0.4463662193850245  0.4595209371514753 0 0.4253249285837939  0.3873123962753185 0 0.4899626124422253  0.3876250349852705 0 0.5839247669697213  0.07755778095112512 0 0.07322480571131515  0.6662618639536104 0 0.6404224526940073  0.6281317226641706 0 0.5172795154653362  0.5467991787548994 0 0.2775110285514451  0.6382784164401777 0 0.32558335190295  0.7209625386664502 0 0.3760300013763025  0.4777689774710401 0 0.7650512433185178  0.8150026845526732 0 0.4083495007681245  0.5566757769165783 0 0.3852531587967231  0.08307535298787436 0 0.9466352209487393  0.9264479164039098 0 0.09196696687313166  0.2397696045481275 0 0.2516617606603849  0.08142379610690136 0.4255946222877561 0.9012432429190713  0.09186671735860186 0.5103340042487068 0.8550553843753256  0.9658493887414453 0.07517233868428744 0.2479598309495128  0.2588669386047153 0.4173196613385269 0.8711097567802347  0.349931687668115 0.4640670731596268 0.8137503091088829  0.2521091443082024 0.5198490772623717 0.8162094806026494  0.3381706165708041 0.3470207631890471 0.8747669541105296  0.4127313919422814 0.6915412096022421 0.5928098797483512  0.505094034203222 0.6002477622197614 0.6201472732847281  0.5053541985510116 0.6749299798537994 0.5376677936248502  0.5711974176563547 0.6081084457949028 0.5513053856218164  0.2265606352222516 0.3190644824037021 0.9202543858282597  0.1657801920411619 0.4763492767397394 0.8634861287110075  0.1656568208377873 0.3895779149708851 0.9059728836322062  0.501344556404584 0.2277556352228774 0.8347340932223356  0.4415367071350051 0.3068779784495727 0.8431318061816198  0.4059460944519277 0.2465220798785426 0.8800196773547647  0.6196876017566089 0.7450935593761555 0.2466229186537899  0.627698728320387 0.714123017011242 0.3098751733194038  0.6711018023358704 0.69515091935471 0.2576578549585624  0.5155953815884997 0.3094099022200982 0.7990162169147497  0.899989132227882 0.4289906012996104 0.07737328911389559  0.9382293875188548 0.3361973257557999 0.08183504475860598  0.2363183186651487 0.9697312279355392 0.06144101097726593  0.2993323950146074 0.9481462475789452 0.106858834434898  0.3101615066201264 0.2414838162804179 0.9195028038487859  0.4482922838801319 0.1771577048152243 0.8761559084079369  0.5266326972169642 0.1057746683003005 0.8434866458741044  0.4200451415729211 0.09020206018716082 0.9030092288448531  0.7623891105001969 0.5843698709159578 0.2779832695620105  0.7799115838824263 0.596929282445646 0.1881843592994147  0.7264879983305693 0.6504346235700518 0.2216979673856474  0.8178732076005444 0.5297083005156807 0.2247054353013872  0.08303734348179403 0.1922053315992417 0.9778353184930026  0.09408269694107538 0.07627092328721888 0.9926385003601306  0.1760515877647063 0.1196852712822077 0.9770779264130525  0.5576143975194612 0.3637809431371279 0.7461431558952143  0.4455986119305068 0.3912097319557027 0.8052309126385754  0.8060332204752099 0.4925189261569118 0.3282309474556054  0.7346451337886817 0.5624574787189985 0.379391765901261  0.642508165502269 0.2904084282097414 0.7091164940174894  0.7030254185009037 0.306273768786429 0.6418345888895255  0.6340141384684502 0.3769833468372913 0.6752108029567235  0.365152486570974 0.1655128603952953 0.9161163433728284  0.5962792236506059 0.542109883053058 0.5920877993497508  0.5485896415631504 0.5085733599282969 0.6636283167111371  0.5920678220815722 0.6464708649476155 0.4811768020483384  0.1878625042731283 0.2239323962641036 0.9563273296270713  0.1024217313722561 0.3092935774102874 0.9454349644028699  0.2334505071908325 0.06487815783086033 0.9702018786463037  0.4887206245964966 0.8674866792832123 0.09283863613924619  0.5742874233407752 0.8143734795796027 0.08360497084518105  0.9317006522490203 0.08389294215323394 0.3534060962343804  0.951181716421189 0.1590863374964037 0.2644709427669156  0.5455072387620422 0.7115493400103802 0.4428536882413925  0.9076276342048921 0.3867895805147213 0.1631131448807132  0.8905082493452895 0.127913990281725 0.4366154703376809  0.9096700297655037 0.1954608695184058 0.3664634844476816  0.4909557921631998 0.4638599224188366 0.7374255098075979  0.4820557633059458 0.5398846258057163 0.6900339353119844  0.4181956098394346 0.5173376920524271 0.7466419116905315  0.7346402167242096 0.09513558808181954 0.67175365414096  0.8078263850243458 0.09713596463829366 0.5813614504181416  0.2601336813274003 0.1475738587985683 0.954228706358363  0.3264256065230105 0.07648882390671821 0.9421230191559125  0.4590556119879899 0.7423895417623142 0.4879812633537003  0.6126112913498895 0.686574629053208 0.3915644065170771  0.6684671903139626 0.6091898762120843 0.4266606499250449  0.6977699223891808 0.542245960309553 0.4680667195357594  0.7549550374165268 0.4843931863016896 0.4420476586793638  0.07712060794257616 0.6883652307079324 0.7212528828247291  0.1027005936763692 0.7518617879958691 0.6512729380299598  0.9625479306552708 0.2091983633587219 0.1724457188778192  0.9825939555666527 0.1641265719497667 0.08701486576382911  0.964839163020035 0.2492141217550538 0.08353269432177644  0.97740960683
[...]
<PointData  Vectors="Solid displacement [m]"> 
<DataArray  type="Float64"  Name="Solid displacement [m]"  NumberOfComponents="3" format="ascii">0.0000000000000000e+00 0.0000000000000000e+00 0.0000000000000000e+00  -1.6630426161433737e-01 0.0000000000000000e+00 0.0000000000000000e+00  0.0000000000000000e+00 -1.6630423899513233e-01 0.0000000000000000e+00  0.0000000000000000e+00 0.0000000000000000e+00 -1.6630434254793205e-01  -1.6589831980746365e-02 0.0000000000000000e+00 0.0000000000000000e+00  -3.3183183702629314e-02 0.0000000000000000e+00 0.0000000000000000e+00  -4.9782494003530665e-02 0.0000000000000000e+00 0.0000000000000000e+00  -6.6390573015084692e-02 0.0000000000000000e+00 0.0000000000000000e+00  -8.3009864620278900e-02 0.0000000000000000e+00 0.0000000000000000e+00  -9.9641730753110003e-02 0.0000000000000000e+00 0.0000000000000000e+00  -1.1628723108603339e-01 0.0000000000000000e+00 0.0000000000000000e+00  -1.3294654976794970e-01 0.0000000000000000e+00 0.0000000000000000e+00  -1.4961925083058250e-01 0.0000000000000000e+00 0.0000000000000000e+00  0.0000000000000000e+00 -1.6589871421500556e-02 0.0000000000000000e+00  0.0000000000000000e+00 -3.3182970264453673e-02 0.0000000000000000e+00  0.0000000000000000e+00 -4.9782253905090383e-02 0.0000000000000000e+00  0.0000000000000000e+00 -6.6390518564827083e-02 0.0000000000000000e+00  0.0000000000000000e+00 -8.3009797216231890e-02 0.0000000000000000e+00  0.0000000000000000e+00 -9.9641693146054672e-02 0.0000000000000000e+00  0.0000000000000000e+00 -1.1628718163133656e-01 0.0000000000000000e+00  0.0000000000000000e+00 -1.3294658366023462e-01 0.0000000000000000e+00  0.0000000000000000e+00 -1.4961937248509177e-01 0.0000000000000000e+00  0.0000000000000000e+00 0.0000000000000000e+00 -1.6589848946196539e-02  0.0000000000000000e+00 0.0000000000000000e+00 -3.3183119899402508e-02  0.0000000000000000e+00 0.0000000000000000e+00 -4.9782356251759419e-02  0.0000000000000000e+00 0.0000000000000000e+00 -6.6390476718446709e-02  0.0000000000000000e+00 0.0000000000000000e+00 -8.3009803510672178e-02  0.0000000000000000e+00 0.0000000000000000e+00 -9.9641682470960780e-02  0.0000000000000000e+00 0.0000000000000000e+00 -1.1628711129154448e-01  0.0000000000000000e+00 0.0000000000000000e+00 -1.3294650633290542e-01  0.0000000000000000e+00 0.0000000000000000e+00 -1.4961936340797777e-01  -1.6550348309519716e-01 -1.6300744829611184e-02 0.0000000000000000e+00  -1.6310878051892014e-01 -3.2444401485808162e-02 0.0000000000000000e+00  -1.5914321696628320e-01 -4.8275640497299065e-02 0.0000000000000000e+00  -1.5364501922849932e-01 -6.3641894475613428e-02 0.0000000000000000e+00  -1.4666720430006391e-01 -7.8395226136439414e-02 0.0000000000000000e+00  -1.3827697869079669e-01 -9.2393625565486082e-02 0.0000000000000000e+00  -1.2855480857165244e-01 -1.0550245461763599e-01 0.0000000000000000e+00  -1.1759480018071920e-01 -1.1759499656411387e-01 0.0000000000000000e+00  -1.0550210821117834e-01 -1.2855507191886795e-01 0.0000000000000000e+00  -9.2393462569001952e-02 -1.3827701911822451e-01 0.0000000000000000e+00  -7.8395350411335038e-02 -1.4666711990364847e-01 0.0000000000000000e+00  -6.3641682567438046e-02 -1.5364504952215052e-01 0.0000000000000000e+00  -4.8275600406405418e-02 -1.5914304858858891e-01 0.0000000000000000e+00  -3.2444352498227420e-02 -1.6310869475041884e-01 0.0000000000000000e+00  -1.6300800715756087e-02 -1.6550348627469733e-01 0.0000000000000000e+00  -1.6550351576598785e-01 0.0000000000000000e+00 -1.6300731386764751e-02  -1.6310883639832127e-01 0.0000000000000000e+00 -3.2444195992519236e-02  -1.5914323397261970e-01 0.0000000000000000e+00 -4.8275686414476431e-02  -1.5364527364779859e-01 0.0000000000000000e+00 -6.3641652744273941e-02  -1.4666735632537839e-01 0.0000000000000000e+00 -7.8395469890596814e-02  -1.3827687443631506e-01 0.0000000000000000e+00 -9.2394017912516918e-02  -1.2855486321970835e-01 0.0000000000000000e+00 -1.0550232865053442e-01  -1.1759505696739996e-01 0.0000000000000000e+00 -1.1759474062218427e-01  -1.0550210093620171e-01 0.0000000000000000e+00 -1.2855522910804329e-01  -9.2393542463204997e-02 0.0000000000000000e+00 -1.3827693737776184e-01  -7.8395418919106702e-02 0.0000000000000000e+00 -1.4666714537935335e-01  -6.3642075879463481e-02 0.0000000000000000e+00 -1.5364514672811233e-01  -4.8275614994666288e-02 0.0000000000000000e+00 -1.5914340914216951e-01  -3.2443994184712020e-02 0.0000000000000000e+00 -1.6310890057530467e-01  -1.6300737614770459e-02 0.0000000000000000e+00 -1.6550361449524109e-01  0.0000000000000000e+00 -1.6550339334908468e-01 -1.6301107534767593e-02  0.0000000000000000e+00 -1.6310858867862668e-01 -3.2444429270375254e-02  0.0000000000000000e+00 -1.5914290449664650e-01 -4.8275891492102894e-02  0.0000000000000000e+00 -1.5364495921849333e-01 -6.3641743760664254e-02  0.0000000000000000e+00 -1.4666707290788994e-01 -7.8395230443275760e-02  0.0000000000000000e+00 -1.3827704805193358e-01 -9.2393274631156527e-02  0.0000000000000000e+00 -1.2855479118144830e-01 -1.0550232550268239e-01  0.0000000000000000e+00 -1.1759495509143067e-01 -1.1759459306503700e-01  0.0000000000000000e+00 -1.0550228770083273e-01 -1.2855475690850107e-01  0.0000000000000000e+00 -9.2393527030775802e-02 -1.3827689479072183e-01  0.0000000000000000e+00 -7.8395256921145684e-02 -1.4666714385896545e-01  0.0000000000000000e+00 -6.3641703415495965e-02 -1.5364506661953761e-01  0.0000000000000000e+00 -4.8275600879590923e-02 -1.5914316222706884e-01  0.0000000000000000e+00 -3.2444567189293790e-02 -1.6310877893154596e-01  0.0000000000000000e+00 -1.6300989562120293e-02 -1.6550354631267025e-01  -1.5335705295197835e-02 0.0000000000000000e+00 -6.0714856249209651e-02  -1.3141176624434071e-02 0.0000000000000000e+00 -7.4188129374072209e-02  -2.5511111000359254e-02 0.0000000000000000e+00 -7.1404353489367176e-02  -4.2402375424807480e-02 0.0000000000000000e+00 -1.5856652712086656e-02  -3.0940049498420899e-02 0.0000000000000000e+00 -3.3767284545920179e-02  -5.0062433504146631e-02 0.0000000000000000e+00 -3.2180660850826083e-02  -3.1230676490358655e-02 0.0000000000000000e+00 -5.4812677137865778e-02  -1.3957825757660252e-02 0.0000000000000000e+00 -1.0692044505644394e-01  -1.5173361231346402e-02 0.0000000000000000e+00 -8.8400297460634880e-02  -3.2088966991941678e-02 0.0000000000000000e+00 -1.3092668749474415e-01  -3.5998185882225711e-02 0.0000000000000000e+00 -1.4977095795673415e-01  -4.8548261537005935e-02 0.0000000000000000e+00 -1.4106463933397603e-01  -1.3357139126889170e-01 0.0000000000000000e+00 -1.3614826421745796e-02  -2.1634994834032840e-02 0.0000000000000000e+00 -1.4743111799421629e-01  -1.3944602380948320e-02 0.0000000000000000e+00 -1.3716830609174671e-01  -1.5162020401778362e-02 0.0000000000000000e+00 -1.2376397167575499e-01  -1.4786678528970848e-01 0.0000000000000000e+00 -4.4936410398584870e-02  -1.4284197485220332e-01 0.0000000000000000e+00 -2.9954198945087045e-02  -1.3337626439379935e-01 0.0000000000000000e+00 -4.1142167740918695e-02  -5.7730299736946766e-02 0.0000000000000000e+00 -6.8496999676582598e-02  -4.9750929998530806e-02 0.0000000000000000e+00 -5.1404759500589980e-02  -4.1343260492782009e-02 0.0000000000000000e+00 -6.8484210423593678e-02  -7.5611865059783942e-02 0.0000000000000000e+00 -4.1818734859128813e-02  -6.5937749235265089e-02 0.0000000000000000e+00 -5.4094006078864221e-02  -8.1103149080939824e-02 0.0000000000000000e+00 -5.4252563471635117e-02  -1.4878736482693724e-02 0.0000000000000000e+00 -4.4831401840533427e-02  -1.3899305256471229e-02 0.0000000000000000e+00 -2.7305866212557251e-02  -6.4327082212387268e-02 0.0000000000000000e+00 -1.3361214699172480e-01  -2.9769844670831637e-02 0.0000000000000000e+00 -1.1539501197127977e-01  -2.7043370345681973e-02 0.0000000000000000e+00 -9.8849758522469966e-02  -4.0432537177701386e-02 0.0000000000000000e+00 -1.0143360813942456e-01  -5.3233935064192550e-02 0.0000000000000000e+00 -1.0301815731479390e-01  -4.7294155825750715e-02 0.0000000000000000e+00 -1.1896155964794378e-01  -6.3682976909042260e-02 0.0000000000000000e+00 -1.1455023143791723e-01  -2.5912354605506761e-02 0.0000000000000000e+00 -1.5807676038473602e-02  -1.3501941514377774e-01 0.0000000000000000e+00 -5.4414627930162447e-02  -3.3645091252901195e-02 0.0000000000000000e+00 -8.5473552210407894e-02  -5.0671698123342220e-02 0.0000000000000000e+00 -8.6299667205413058e-02  -9.7829859532670316e-02 0.0000000000000000e+00 -9.7719480325633004e-02  -9.3513419758489397e-02 0.0000000000000000e+00 -8.0433853725263321e-02  -7.9646139944323402e-02 0.0000000000000000e+00 -9.0037487355342019e-02  -6.6646013410788366e-02 0.0000000000000000e+00 -2.6480999136826871e-02  -7.5542237538368501e-02 0.0000000000000000e+00 -1.3944603736993008e-02  -5.9322428527194909e-02 0.0000000000000000e+00 -1.4131080288522299e-02  -7.9397991886162173e-02 0.0000000000000000e+00 -1.0669359131947546e-01  -9.7860588737682330e-02 0.0000000000000000e+00 -1.1850771895950792e-01  -1.1690806664708803e-01 0.0000000000000000e+00 -9.2214931002900000e-02  -6.1584886385629964e-02 0.0000000000000000e+00 -3.9589354710403001e-02  -1.0537570626360736e-01 0.0000000000000000e+00 -3.2561696428236676e-02  -1.1973655749267291e-01 0.0000000000000000e+00 -4.6726167026221704e-02  -1.2394846271816529e-01 0.0000000000000000e+00 -3.0477704182661988e-02  -1.1291104512219234e-01 0.0000000000000000e+00 -1.7072031992521539e-02  -9.3278247145213752e-02 0.0000000000000000e+00 -1.5555968375224508e-02  -8.4677276578228128e-02 0.0000000000000000e+00 -2.8826651774403963e-02  -1.2759707594608516e-01 0.0000000000000000e+00 -7.9741540149613266e-02  -1.0880943182473371e-01 0.0000000000000000e+00 -7.4176504669365595e-02  -7.6318830786141073e-02 0.0000000000000000e+00 -7.0639458057642601e-02  -6.4325932219343351e-02 0.0000000000000000e+00 -8.1374146741140491e-02  -6.4394270592537078e-02 0.0000000000000000e+00 -9.7004478017149953e-02  -1.2866849062530203e-02 0.0000000000000000e+00 -1.2147971166836137e-02  -1.1077154114474523e-01 0.0000000000000000e+00 -1.0647557781543170e-01  -1.0439002337924687e-01 0.0000000000000000e+00 -8.5967383994063756e-02  -9.0810538661109497e-02 0.0000000000000000e+00 -4.6088165444199622e-02  -1.0603979208383019e-01 0.0000000000000000e+00 -5.4090534464059974e-02  -1.1981752161512131e-01 0.0000000000000000e+00 -6.2492858134140697e-02  -7.9426532146252379e-02 0.0000000000000000e+00 -1.2718577396506284e-01  -1.3549482568301213e-01 0.0000000000000000e+00 -6.7888411818282243e-02  -9.2470246746075027e-02 0.0000000000000000e+00 -6.3995013347042509e-02  -1.3813335648443552e-02 0.0000000000000000e+00 -1.5740119515079359e-01  -1.5403358262215028e-01 0.0000000000000000e+00 -1.5290651811129154e-02  -3.9791535550442153e-02 0.0000000000000000e+00 -4.1765010494350684e-02  -1.3541213691576518e-02 -7.0778024875563741e-02 -1.4988055152787863e-01  -1.5277872440422779e-02 -8.4870624125648483e-02 -1.4219926578726455e-01  -1.6062487824648855e-01 -1.2501591210072598e-02 -4.1236873979180869e-02  -4.3050786862968649e-02 -6.9401962902915032e-02 -1.4486881848710564e-01  -5.8194772328826437e-02 -7.7176011186615046e-02 -1.3532992739811336e-01  -4.1926964471364798e-02 -8.6452824588622953e-02 -1.3573883556943514e-01  -5.6239066621797881e-02 -5.7711182060575829e-02 -1.4547705216712925e-01  -6.8638808195996937e-02 -1.1500587868426741e-01 -9.8586616532448795e-02  -8.3998798958241500e-02 -9.9823791217338295e-02 -1.0313290596418113e-01  -8.4042112083940981e-02 -1.1224354841927103e-01 -8.9416443674752516e-02  -9.4992134420352731e-02 -1.0113097146488335e-01 -9.1684451652653667e-02  -3.7678030176229706e-02 -5.3061775990176155e-02 -1.5304193986659578e-01  -2.7570215212278364e-02 -7.9218768321267605e-02 -1.4360120563847165e-01  -2.7549562141427945e-02 -6.4788345663255545e-02 -1.5066697655053368e-01  -8.3375639020762074e-02 -3.7876801721061906e-02 -1.3881972795109673e-01  -7.3429041342310722e-02 -5.1035411557851670e-02 -1.4021621675186319e-01  -6.7510284656144115e-02 -4.0998018639136755e-02 -1.4635088227684959e-01  -1.0305652230869887e-01 -1.2391223472553990e-01 -4.1014477941379739e-02  -1.0438877980982970e-01 -1.1876162134765682e-01 -5.1533805171519474e-02  -1.1160700062917701e-01 -1.1560647313486454e-01 -4.2849646464850281e-02  -8.5745430318628940e-02 -5.1456406000012368e-02 -1.3287966773094442e-01  -1.4967190336508643e-01 -7.1342929790842474e-02 -1.2867638822294390e-02  -1.5603143375832884e-01 -5.5911111370085503e-02 -1.3609601365056864e-02  -3.9300808645474632e-02 -1.6127029751523467e-01 -1.0218062617906499e-02  -4.9780165745859285e-02 -1.5768055392219466e-01 -1.7771403277438556e-02  -5.1580971104649584e-02 -4.0160119059498581e-02 -1.5291700873237016e-01  -7.4552936636605838e-02 -2.9462178663021983e-02 -1.4570845619865649e-01  -8.7581145148631107e-02 -1.7590743650933032e-02 -1.4027544563821384e-01  -6.9855471989594381e-02 -1.5001027834918723e-02 -1.5017430579372174e-01  -1.2678836848382793e-01 -9.7182993823558647e-02 -4.6230093505181091e-02  -1.2970251268178098e-01 -9.9271855906981149e-02 -3.1296076310262828e-02  -1.2081792538024735e-01 -1.0816998320736418e-01 -3.6869419786625522e-02  -1.3601565813884064e-01 -8.8092585860978137e-02 -3.7369694720635095e-02  -1.3809570805073024e-02 -3.1964806439325442e-02 -1.6261808352996063e-01  -1.5646394001521013e-02 -1.2684405714461406e-02 -1.6508008610562871e-01  -2.9277940680185528e-02 -1.9904427325581588e-02 -1.6249224642060803e-01  -9.2733334741280579e-02 -6.0498410980753571e-02 -1.2408667729549011e-01  -7.4104571303504993e-02 -6.5059801363655245e-02 -1.3391314701294610e-01  -1.3404640962327502e-01 -8.1908017720755733e-02 -5.4586299432905501e-02  -1.2217444228417652e-01 -9.3538899215667978e-02 -6.3094350558306020e-02  -1.0685167852501143e-01 -4.8296262465118020e-02 -1.1792901549920315e-01  -1.1691591113687623e-01 -5.0934775330330195e-02 -1.0673975699137529e-01  -1.0543908477816927e-01 -6.2693929284527328e-02 -1.1229032672833612e-01  -6.0726252515256054e-02 -2.7525728409927046e-02 -1.5235402236679452e-01  -9.9163573826672957e-02 -9.0155102004115320e-02 -9.8466598548020215e-02  -9.1232566924143235e-02 -8.4578015164501474e-02 -1.1036407962990180e-01  -9.8463140440105304e-02 -1.0751078703726058e-01 -8.0021737766894599e-02  -3.1242296153677081e-02 -3.7241221911997954e-02 -1.5904109685644710e-01  -1.7033275018433203e-02 -5.1436843417975116e-02 -1.5722968101494122e-01  -3.8823744618370869e-02 -1.0789681149456058e-02 -1.6134888870429190e-01  -8.1276178298513690e-02 -1.4426669273039316e-01 -1.5439552760802239e-02  -9.5506348030106741e-02 -1.3543380189711263e-01 -1.3903861029649288e-02  -1.5494579095887456e-01 -1.3952035657880496e-02 -5.8772719969911132e-02  -1.5818537491305987e-01 -2.6456843867478520e-02 -4.3982796198070821e-02  -9.0719878829292777e-02 -1.1833357115131737e-01 -7.3648496308384770e-02  -1.5094218886721325e-01 -6.4324781200301356e-02 -2.7126440639288509e-02  -1.4809542348001006e-01 -2.1272892972564204e-02 -7.2610857315041466e-02  -1.5128199215534471e-01 -3.2505993923678922e-02 -6.0944176841983437e-02  -8.1647798448307995e-02 -7.7141694929395987e-02 -1.2263691591122043e-01  -8.0167562224179117e-02 -8.9785158947690610e-02 -1.1475534107513297e-01  -6.9547337797424238e-02 -8.6035437751746796e-02 -1.2416948694769334e-01  -1.2217380825255356e-01 -1.5821499285234800e-02 -1.1171539552084120e-01  -1.3434486877374971e-01 -1.6154151216174490e-02 -9.6683087620865998e-02  -4.3261370731233949e-02 -2.4542600763585939e-02 -1.5869220599293724e-01  -5.4286040777828642e-02 -1.2720665722188412e-02 -1.5667916084114444e-01  -7.6342489888128195e-02 -1.2346232014925987e-01 -8.1153449120821411e-02  -1.0187970727870824e-01 -1.1418010697115567e-01 -6.5118883009244663e-02  -1.1116871304240532e-01 -1.0131086739521994e-01 -7.0955327046803102e-02  -1.1604202288820037e-01 -9.0177620765664018e-02 -7.7841467332925532e-02  -1.2555202575174274e-01 -8.0556551617342653e-02 -7.3514342378369152e-02  -1.2825469152407542e-02 -1.1447809007624685e-01 -1.1994728696629253e-01  -1.7079660865601545e-02 -1.2503777737764082e-01 -1.0830924007317236e-01  -1.6007570071822921e-01 -3.4790574919053470e-02 -2.8678573387405547e-02  -1.6340954784013631e-01 -2.7294932040507484e-02 -1.4471015784200373e-02  -1.6045679836138566e-01 -4.1445422027027140e-02 -1.3891931467644513e-02  -1.6254734618768049e-01 -1.8823966712560012e-02 -2.9683602390882583e-02  -1.2701473016142759e-01 -5.1974629048839809e-02 -9.3930572041045157e-02  -1.1627474663594517e-01 -6.5150609704287668e-02 -9.9461660355438533e-02  -1.5485917290648579e-01 -4.2344326298783826e-02 -4.3389592626293209e-02  -1.1621924751470723e-02 -1.3451037368496593e-01 -9.7102890882428572e-02  -2.8856419399120689e-02 -1.3410476438150495e-01 -9.4022593314947556e-02  -5.6448511837583822e-02 -9.3463451998279087e-02 -1.2543969076147940e-01  -1.1371743332543897e-01 -8.0579224228422577e-02 -9.0732437299082244e-02  -1.0344142117773174e-01 -7.6410566287465842e-02 -1.0544353187930164e-01  -1.8898151029383716e-02 -1.4307494899071080e-01 -8.2640475094084051e-02  -3.7073679018291512e-02 -1.4141270511422183e-01 -7.9278010922542455e-02  -2.8013094197962357e-02 -1.4943144311695725e-01 -6.7398215160022562e-02  -1.0607923768986970e-01 -9.5525157937443136e-02 -8.5318139586464656e-02  -9.4921940007227257e-02 -7.3046993189946396e-02 -1.1537333297710484e-01  -1.5622940602484928e-01 -4.9483679311179599e-02 -2.8298505116188838e-02  -1.9955835339364986e-02 -1.5653333924715715e-01 -5.2498396415826980e-02  -3.7161799686145122e-02 -1.5365003579279629e-01 -5.1649472428525779e-02  -2.9833310229056696e-02 -1.5921327676973898e-01 -3.7657717329180031e-02  -4.9051343317825395e-02 -1.5482891804999935e-01 -3.5762506812140445e-02  -4.3982227838553122e-02 -1.3238821760784131e-01 -9.0531519087886453e-02  -3.6227186243019745e-02 -1.2451670767077970e-01 -1.0411629451935897e-01  -1.4372815973645470e-01 -7.9117564483113412e-02 -2.7197023664557417e-02  -1.4356179531146623e-01 -7.3640814392797321e-02 -4.0300182620360128e-02  -1.4078944945684166e-01 -2.5192195464391588e-02 -8.4857726460542390e-02  -1.4368236631847903e-01 -3.5516257185871813e-02 -7.5835890342496118e-02  -1.3446095942059330e-01 -3.5823140702141217e-02 -9.1071672544486199e-02  -1.3734600230966459e-01 -5.1951428170344711e-02 -7.8065430819228510e-02  -1.3581533635208728e-01 -9.3359347963385089e-02 -2.2255852636793451e-02  -1.4192713764684795e-01 -8.5793754895426455e-02 -1.2377582228528377e-02  -1.3475992831278222e-01 -9.6913779252942006e-02 -1.0227599916984687e-02  -6.9350576710940123e-02 -9.9550221006133990e-02 -1.1374185276607926e-01  -1.5051101047717694e-01 -5.7526074684172313e-02 -4.1161382241785810e-02  -1.2677879011199966e-01 -1.0572991978498557e-01 -2.0135283342062892e-02  -5.9689515793457291e-02 -1.5482325789725351e-01 -1.1134826156497805e-02  -1.4235689824498404e-01 -6.8154841870976715e-02 -5.2407222331900295e-02  -4.3191732861768500e-02 -1.0093671368603706e-01 -1.2491297475371309e-01  -2.7479438049973243e-02 -9.4518796560585552e-02 -1.3404526090928368e-01  -3.1922027583840967e-02 -1.0604511980350201e-01 -1.2406639263792035e-01  -4.3202299431266210e-02 -1.1472968663981893e-01 -1.1237287615747012e-01  -2.7099181489107494e-02 -1.1548549470187354e-01 -1.1655803098215858e-01  -1.1810306784717405e-01 -3.4305365764123456e-02 -1.1194579531771720e-01  -1.1269210125463695e-01 -2.2776613009582180e-02 -1.2016163701981283e-01  -1.4839250484902614e-01 -5.1090384607212880e-02 -5.5014066844633100e-02  -1.0213369302135951e-01 -1.6255534305868756e-02 -1.3023665221456340e-01  -1.0572568957894575e-01 -3.2947411943924226e-02 -1.2407106274896977e-01  -1.1096566976975639e-01 -1.0244738315583724e-02 -1.2344558970041918e-01  -1.4507854218706276e-01 -4.5313180662854786e-02 -6.7498390017883297e-02  -1.4232693778514721e-01 -5.8226790447455566e-02 -6.3322980532234216e-02  -8.7209148949873389e-02 -1.3894023181982490e-01 -2.7335747109874350e-02  -9.3576310594664883e-02 -1.3183779806266643e-01 -3.8978567368195348e-02  -9.9709164437074449e-02 -1.3039899445106048e-01 -2.6669475234368148e-02  -8.2475501209140795e-02 -1.3736618922915214e-01 -4.4557365678581672e-02  -8.1404163278420164e-02 -1.278719