<?xml version="1.0"?>
<VTKFile type="UnstructuredGrid"  version="0.1"  >
<UnstructuredGrid>
<Piece  NumberOfPoints="597" NumberOfCells="2124">
<Points>
<DataArray  type="Float64"  NumberOfComponents="3"  format="ascii">0 0 0  1 0 0  0 1 0  0 0 1  0.09999999999981467 0 0  0.1999999999995579 0 0  0.2999999999992664 0 0  0.3999999999989749 0 0  0.4999999999986943 0 0  0.5999999999989468 0 0  0.69999999999921 0 0  0.7999999999994734 0 0  0.8999999999997368 0 0  0 0.09999999999981467 0  0 0.1999999999995579 0  0 0.2999999999992664 0  0 0.3999999999989749 0  0 0.4999999999986943 0  0 0.5999999999989468 0  0 0.69999999999921 0  0 0.7999999999994734 0  0 0.8999999999997368 0  0 0 0.09999999999981467  0 0 0.1999999999995579  0 0 0.2999999999992664  0 0 0.3999999999989749  0 0 0.4999999999986943  0 0 0.5999999999989468  0 0 0.69999999999921  0 0 0.7999999999994734  0 0 0.8999999999997368  0.9951847266502585 0.09801714055230534 0  0.9807852803038259 0.1950903225158687 0  0.9569403355024331 0.2902846780119318 0  0.9238795320817892 0.3826834334019886 0  0.8819212636904032 0.4713967380569389 0  0.8314696113679687 0.5555702344182949 0  0.7730104520841969 0.6343932857215511 0  0.7071067795733449 0.7071067827997501 0  0.634393282646958 0.7730104546074502 0  0.5555702316245595 0.8314696132346829 0  0.471396735522105 0.8819212650453002 0  0.3826834312318057 0.9238795329807084 0  0.2902846763682919 0.9569403360010258 0  0.1950903214145686 0.980785280522888 0  0.0980171400302339 0.995184726701678 0  0.9951847266502585 0 0.09801714055230534  0.9807852803038259 0 0.1950903225158687  0.9569403355024331 0 0.2902846780119318  0.9238795320817892 0 0.3826834334019886  0.8819212636904032 0 0.4713967380569389  0.8314696113679687 0 0.5555702344182949  0.7730104520841969 0 0.6343932857215511  0.7071067795733449 0 0.7071067827997501  0.634393282646958 0 0.7730104546074502  0.5555702316245595 0 0.8314696132346829  0.471396735522105 0 0.8819212650453002  0.3826834312318057 0 0.9238795329807084  0.2902846763682919 0 0.9569403360010258  0.1950903214145686 0 0.980785280522888  0.0980171400302339 0 0.995184726701678  0 0.9951847266502585 0.09801714055230534  0 0.9807852803038259 0.1950903225158687  0 0.9569403355024331 0.2902846780119318  0 0.9238795320817892 0.3826834334019886  0 0.8819212636904032 0.4713967380569389  0 0.8314696113679687 0.5555702344182949  0 0.7730104520841969 0.6343932857215511  0 0.7071067795733449 0.7071067827997501  0 0.634393282646958 0.7730104546074502  0 0.5555702316245595 0.8314696132346829  0 0.471396735522105 0.8819212650453002  0 0.3826834312318057 0.9238795329807084  0 0.2902846763682919 0.9569403360010258  0 0.1950903214145686 0.980785280522888  0 0.0980171400302339 0.995184726701678  0.09240154966779951 0 0.3658235692199516  0.07916357488785433 0 0.4469199030523527  0.1536813483092524 0 0.4301465381022301  0.2555379022644893 0 0.09556049568595243  0.1864593291765566 0 0.2034979771761179  0.301651764011142 0 0.1939053326038485  0.1881720785854029 0 0.3302588474155368  0.08403438330774521 0 0.6437268466185475  0.09138388892861184 0 0.5324072873297468  0.1930859140709486 0 0.7878139522981464  0.2165176696171426 0 0.900824597607195  0.292033522918994 0 0.8485491372975176  0.8037370491763215 0 0.0819245024222376  0.13014171782822 0 0.8868491929551598  0.08390174260734276 0 0.8253161934654943  0.0912526277304111 0 0.7448765232291942  0.8893622411880446 0 0.270275215225845  0.8593018882538136 0 0.1801969264281539  0.8024703672696746 0 0.2475353432181931  0.3476914857890963 0 0.4125368919261175  0.2997235777995208 0 0.3096876237048341  0.2490386282757974 0 0.412527605219857  0.4554126154120848 0 0.2518749964366375  0.39715257119151 0 0.3258159451822259  0.4883877361055989 0 0.3266984434363212  0.08966539318254355 0 0.2701713986717769  0.08377502767602918 0 0.164580120521203  0.3869558528229924 0 0.8037364723405749  0.1791913905804899 0 0.6945879747883159  0.1628348997531483 0 0.5951991143072877  0.2434219731662663 0 0.6106761106298939  0.3204481765543245 0 0.6201302437713152  0.2846206283417919 0 0.7159219267704837  0.3832252637688779 0 0.6893291551637116  0.1561812521325313 0 0.09527745928338882  0.8122499659106144 0 0.3273472587872134  0.2026260329838435 0 0.5147603927306801  0.3051207491780334 0 0.5196560474248884  0.5886190882535927 0 0.5879547877726188  0.5628286668856228 0 0.4841066442899339  0.4793970684942127 0 0.5419440173923771  0.4015076433379883 0 0.1595345792024606  0.4550663848726773 0 0.08400234057127416  0.3574412370957718 0 0.08514557536940835  0.4777735346904641 0 0.6420237002140541  0.5886050303809575 0 0.712791733722679  0.7032448955145116 0 0.5547060123784804  0.3710082806848816 0 0.2384994559961529  0.6343947712920404 0 0.1960314230465952  0.7205780420889929 0 0.2811987241304542  0.745939430962431 0 0.1834190974026157  0.6797060130425652 0 0.1027709852058109  0.5617353506566283 0 0.09368054426051139  0.5099863318045709 0 0.1736146479983669  0.767516113391133 0 0.4796577434100839  0.6547738563668709 0 0.4463662193850245  0.4595209371514753 0 0.4253249285837939  0.3873123962753185 0 0.4899626124422253  0.3876250349852705 0 0.5839247669697213  0.07755778095112512 0 0.07322480571131515  0.6662618639536104 0 0.6404224526940073  0.6281317226641706 0 0.5172795154653362  0.5467991787548994 0 0.2775110285514451  0.6382784164401777 0 0.32558335190295  0.7209625386664502 0 0.3760300013763025  0.4777689774710401 0 0.7650512433185178  0.8150026845526732 0 0.4083495007681245  0.5566757769165783 0 0.3852531587967231  0.08307535298787436 0 0.9466352209487393  0.9264479164039098 0 0.09196696687313166  0.2397696045481275 0 0.2516617606603849  0.08142379610690136 0.4255946222877561 0.9012432429190713  0.09186671735860186 0.5103340042487068 0.8550553843753256  0.9658493887414453 0.07517233868428744 0.2479598309495128  0.2588669386047153 0.4173196613385269 0.8711097567802347  0.349931687668115 0.4640670731596268 0.8137503091088829  0.2521091443082024 0.5198490772623717 0.8162094806026494  0.3381706165708041 0.3470207631890471 0.8747669541105296  0.4127313919422814 0.6915412096022421 0.5928098797483512  0.505094034203222 0.6002477622197614 0.6201472732847281  0.5053541985510116 0.6749299798537994 0.5376677936248502  0.5711974176563547 0.6081084457949028 0.5513053856218164  0.2265606352222516 0.3190644824037021 0.9202543858282597  0.1657801920411619 0.4763492767397394 0.8634861287110075  0.1656568208377873 0.3895779149708851 0.9059728836322062  0.501344556404584 0.2277556352228774 0.8347340932223356  0.4415367071350051 0.3068779784495727 0.8431318061816198  0.4059460944519277 0.2465220798785426 0.8800196773547647  0.6196876017566089 0.7450935593761555 0.2466229186537899  0.627698728320387 0.714123017011242 0.3098751733194038  0.6711018023358704 0.69515091935471 0.2576578549585624  0.5155953815884997 0.3094099022200982 0.7990162169147497  0.899989132227882 0.4289906012996104 0.07737328911389559  0.9382293875188548 0.3361973257557999 0.08183504475860598  0.2363183186651487 0.9697312279355392 0.06144101097726593  0.2993323950146074 0.9481462475789452 0.106858834434898  0.3101615066201264 0.2414838162804179 0.9195028038487859  0.4482922838801319 0.1771577048152243 0.8761559084079369  0.5266326972169642 0.1057746683003005 0.8434866458741044  0.4200451415729211 0.09020206018716082 0.9030092288448531  0.7623891105001969 0.5843698709159578 0.2779832695620105  0.7799115838824263 0.596929282445646 0.1881843592994147  0.7264879983305693 0.6504346235700518 0.2216979673856474  0.8178732076005444 0.5297083005156807 0.2247054353013872  0.08303734348179403 0.1922053315992417 0.9778353184930026  0.09408269694107538 0.07627092328721888 0.9926385003601306  0.1760515877647063 0.1196852712822077 0.9770779264130525  0.5576143975194612 0.3637809431371279 0.7461431558952143  0.4455986119305068 0.3912097319557027 0.8052309126385754  0.8060332204752099 0.4925189261569118 0.3282309474556054  0.7346451337886817 0.5624574787189985 0.379391765901261  0.642508165502269 0.2904084282097414 0.7091164940174894  0.7030254185009037 0.306273768786429 0.6418345888895255  0.6340141384684502 0.3769833468372913 0.6752108029567235  0.365152486570974 0.1655128603952953 0.9161163433728284  0.5962792236506059 0.542109883053058 0.5920877993497508  0.5485896415631504 0.5085733599282969 0.6636283167111371  0.5920678220815722 0.6464708649476155 0.4811768020483384  0.1878625042731283 0.2239323962641036 0.9563273296270713  0.1024217313722561 0.3092935774102874 0.9454349644028699  0.2334505071908325 0.06487815783086033 0.9702018786463037  0.4887206245964966 0.8674866792832123 0.09283863613924619  0.5742874233407752 0.8143734795796027 0.08360497084518105  0.9317006522490203 0.08389294215323394 0.3534060962343804  0.951181716421189 0.1590863374964037 0.2644709427669156  0.5455072387620422 0.7115493400103802 0.4428536882413925  0.9076276342048921 0.3867895805147213 0.1631131448807132  0.8905082493452895 0.127913990281725 0.4366154703376809  0.9096700297655037 0.1954608695184058 0.3664634844476816  0.4909557921631998 0.4638599224188366 0.7374255098075979  0.4820557633059458 0.5398846258057163 0.6900339353119844  0.4181956098394346 0.5173376920524271 0.7466419116905315  0.7346402167242096 0.09513558808181954 0.67175365414096  0.8078263850243458 0.09713596463829366 0.5813614504181416  0.2601336813274003 0.1475738587985683 0.954228706358363  0.3264256065230105 0.07648882390671821 0.9421230191559125  0.4590556119879899 0.7423895417623142 0.4879812633537003  0.6126112913498895 0.686574629053208 0.3915644065170771  0.6684671903139626 0.6091898762120843 0.4266606499250449  0.6977699223891808 0.542245960309553 0.4680667195357594  0.7549550374165268 0.4843931863016896 0.4420476586793638  0.07712060794257616 0.6883652307079324 0.7212528828247291  0.1027005936763692 0.7518617879958691 0.6512729380299598  0.9625479306552708 0.2091983633587219 0.1724457188778192  0.9825939555666527 0.1641265719497667 0.08701486576382911  0.964839163020035 0.2492141217550538 0.08353269432177644  0.97740960683
[...]
<PointData  Vectors="Solid displacement [m]"> 
<DataArray  type="Float64"  Name="Solid displacement [m]"  NumberOfComponents="3" format="ascii">0.0000000000000000e+00 0.0000000000000000e+00 0.0000000000000000e+00  -1.6624635117089365e-01 0.0000000000000000e+00 0.0000000000000000e+00  0.0000000000000000e+00 -1.6624632493769206e-01 0.0000000000000000e+00  0.0000000000000000e+00 0.0000000000000000e+00 -1.6624644503665567e-01  -1.6577554199872585e-02 0.0000000000000000e+00 0.0000000000000000e+00  -3.3159190576688466e-02 0.0000000000000000e+00 0.0000000000000000e+00  -4.9747737681663164e-02 0.0000000000000000e+00 0.0000000000000000e+00  -6.6346454690699747e-02 0.0000000000000000e+00 0.0000000000000000e+00  -8.2958176006676820e-02 0.0000000000000000e+00 0.0000000000000000e+00  -9.9584481193830204e-02 0.0000000000000000e+00 0.0000000000000000e+00  -1.1622659925515395e-01 0.0000000000000000e+00 0.0000000000000000e+00  -1.3288474376599149e-01 0.0000000000000000e+00 0.0000000000000000e+00  -1.4955840909287338e-01 0.0000000000000000e+00 0.0000000000000000e+00  0.0000000000000000e+00 -1.6577599942983551e-02 0.0000000000000000e+00  0.0000000000000000e+00 -3.3158943032124251e-02 0.0000000000000000e+00  0.0000000000000000e+00 -4.9747459216683686e-02 0.0000000000000000e+00  0.0000000000000000e+00 -6.6346391539577373e-02 0.0000000000000000e+00  0.0000000000000000e+00 -8.2958097831911493e-02 0.0000000000000000e+00  0.0000000000000000e+00 -9.9584437577576276e-02 0.0000000000000000e+00  0.0000000000000000e+00 -1.1622654189817679e-01 0.0000000000000000e+00  0.0000000000000000e+00 -1.3288478307449139e-01 0.0000000000000000e+00  0.0000000000000000e+00 -1.4955855018759107e-01 0.0000000000000000e+00  0.0000000000000000e+00 0.0000000000000000e+00 -1.6577573876371512e-02  0.0000000000000000e+00 0.0000000000000000e+00 -3.3159116578140573e-02  0.0000000000000000e+00 0.0000000000000000e+00 -4.9747577917985807e-02  0.0000000000000000e+00 0.0000000000000000e+00 -6.6346343006399966e-02  0.0000000000000000e+00 0.0000000000000000e+00 -8.2958105131971646e-02  0.0000000000000000e+00 0.0000000000000000e+00 -9.9584425196164339e-02  0.0000000000000000e+00 0.0000000000000000e+00 -1.1622646031769551e-01  0.0000000000000000e+00 0.0000000000000000e+00 -1.3288469338968706e-01  0.0000000000000000e+00 0.0000000000000000e+00 -1.4955853965892102e-01  -1.6544585501542586e-01 -1.6295080860903224e-02 0.0000000000000000e+00  -1.6305198419478242e-01 -3.2433111620793820e-02 0.0000000000000000e+00  -1.5908779390500022e-01 -4.8258839804200510e-02 0.0000000000000000e+00  -1.5359150350448245e-01 -6.3619734490697896e-02 0.0000000000000000e+00  -1.4661612221952020e-01 -7.8367917704442971e-02 0.0000000000000000e+00  -1.3822883413589920e-01 -9.2361440734489431e-02 0.0000000000000000e+00  -1.2851002339806369e-01 -1.0546574021685821e-01 0.0000000000000000e+00  -1.1755384001972904e-01 -1.1755406769802196e-01 0.0000000000000000e+00  -1.0546533853862633e-01 -1.2851032875946750e-01 0.0000000000000000e+00  -9.2361251766756913e-02 -1.3822888097369443e-01 0.0000000000000000e+00  -7.8368061905673331e-02 -1.4661602430101942e-01 0.0000000000000000e+00  -6.3619488778814126e-02 -1.5359153861518038e-01 0.0000000000000000e+00  -4.8258793351023045e-02 -1.5908759860846031e-01 0.0000000000000000e+00  -3.2433054834765440e-02 -1.6305188471546436e-01 0.0000000000000000e+00  -1.6295145691363384e-02 -1.6544585870204637e-01 0.0000000000000000e+00  -1.6544589290682685e-01 0.0000000000000000e+00 -1.6295065270022870e-02  -1.6305204900336495e-01 0.0000000000000000e+00 -3.2432873290868018e-02  -1.5908781362872770e-01 0.0000000000000000e+00 -4.8258893058869184e-02  -1.5359179857842745e-01 0.0000000000000000e+00 -6.3619454132132922e-02  -1.4661629853733799e-01 0.0000000000000000e+00 -7.8368200409404939e-02  -1.3822871322163560e-01 0.0000000000000000e+00 -9.2361895776628608e-02  -1.2851008677803749e-01 0.0000000000000000e+00 -1.0546559412086740e-01  -1.1755413783895198e-01 0.0000000000000000e+00 -1.1755377085777351e-01  -1.0546533010047218e-01 0.0000000000000000e+00 -1.2851051106637837e-01  -9.2361344426958578e-02 0.0000000000000000e+00 -1.3822878617109033e-01  -7.8368141359991719e-02 0.0000000000000000e+00 -1.4661605384701401e-01  -6.3619944939488124e-02 0.0000000000000000e+00 -1.5359165135340996e-01  -4.8258810269955620e-02 0.0000000000000000e+00 -1.5908801677576012e-01  -3.2432639264296223e-02 0.0000000000000000e+00 -1.6305212342913614e-01  -1.6295072507006195e-02 0.0000000000000000e+00 -1.6544600741054949e-01  0.0000000000000000e+00 -1.6544575092876485e-01 -1.6295501524587180e-02  0.0000000000000000e+00 -1.6305176169975261e-01 -3.2433143845445808e-02  0.0000000000000000e+00 -1.5908743150457222e-01 -4.8259130907024994e-02  0.0000000000000000e+00 -1.5359143390526800e-01 -6.3619559692702124e-02  0.0000000000000000e+00 -1.4661596983146594e-01 -7.8367922699910664e-02  0.0000000000000000e+00 -1.3822891458031994e-01 -9.2361033723057234e-02  0.0000000000000000e+00 -1.2851000322856718e-01 -1.0546559047029364e-01  0.0000000000000000e+00 -1.1755401968380205e-01 -1.1755359972204135e-01  0.0000000000000000e+00 -1.0546554670913105e-01 -1.2850996341205662e-01  0.0000000000000000e+00 -9.2361326528479212e-02 -1.3822873677907652e-01  0.0000000000000000e+00 -7.8367953475541985e-02 -1.4661605208384718e-01  0.0000000000000000e+00 -6.3619512957642968e-02 -1.5359155844402858e-01  0.0000000000000000e+00 -4.8258793899286244e-02 -1.5908773040499841e-01  0.0000000000000000e+00 -3.2433303831964425e-02 -1.6305198234737675e-01  0.0000000000000000e+00 -1.6295364714196351e-02 -1.6544592833276769e-01  -1.5325390065547459e-02 0.0000000000000000e+00 -6.0673990552834130e-02  -1.3132747046338813e-02 0.0000000000000000e+00 -7.4140427254078337e-02  -2.5494740495956743e-02 0.0000000000000000e+00 -7.1358534541326110e-02  -4.2372449866007120e-02 0.0000000000000000e+00 -1.5845451646736480e-02  -3.0918236654495793e-02 0.0000000000000000e+00 -3.3743467936503437e-02  -5.0028419508088721e-02 0.0000000000000000e+00 -3.2158785811352890e-02  -3.1209689586142456e-02 0.0000000000000000e+00 -5.4775850178249326e-02  -1.3950170821017708e-02 0.0000000000000000e+00 -1.0686174240736780e-01  -1.5164207079527071e-02 0.0000000000000000e+00 -8.8346885984368267e-02  -3.2074262884243893e-02 0.0000000000000000e+00 -1.3086666251335854e-01  -3.5984109176501272e-02 0.0000000000000000e+00 -1.4971239715992629e-01  -4.8528448214599486e-02 0.0000000000000000e+00 -1.4100707854849590e-01  -1.3350990485187439e-01 0.0000000000000000e+00 -1.3608553306964907e-02  -2.1626159544363897e-02 0.0000000000000000e+00 -1.4737086243721537e-01  -1.3938366966169546e-02 0.0000000000000000e+00 -1.3710688211769648e-01  -1.5154549853257511e-02 0.0000000000000000e+00 -1.2370291160181017e-01  -1.4780921842815656e-01 0.0000000000000000e+00 -4.4918919450545880e-02  -1.4278205075955394e-01 0.0000000000000000e+00 -2.9941635538146043e-02  -1.3331733258007911e-01 0.0000000000000000e+00 -4.1123995429640001e-02  -5.7695419534341728e-02 0.0000000000000000e+00 -6.8455589020706240e-02  -4.9718491716095582e-02 0.0000000000000000e+00 -5.1371227452497198e-02  -4.1317185570715870e-02 0.0000000000000000e+00 -6.8441003440453729e-02  -7.5565486618902375e-02 0.0000000000000000e+00 -4.1793098787632266e-02  -6.5897106076305945e-02 0.0000000000000000e+00 -5.4060664664803970e-02  -8.1056040468264284e-02 0.0000000000000000e+00 -5.4221055598181161e-02  -1.4868270609748985e-02 0.0000000000000000e+00 -4.4799895967008223e-02  -1.3889206329806765e-02 0.0000000000000000e+00 -2.7286027072717874e-02  -6.4300626596873467e-02 0.0000000000000000e+00 -1.3355718848875603e-01  -2.9754602309699087e-02 0.0000000000000000e+00 -1.1533594374571711e-01  -2.7028065262254240e-02 0.0000000000000000e+00 -9.8793815346515781e-02  -4.0410518783958925e-02 0.0000000000000000e+00 -1.0137836010688796e-01  -5.3206115691131865e-02 0.0000000000000000e+00 -1.0296432511442866e-01  -4.7271366600216094e-02 0.0000000000000000e+00 -1.1890423142929736e-01  -6.3652951404493965e-02 0.0000000000000000e+00 -1.1449622701344635e-01  -2.5893522139253118e-02 0.0000000000000000e+00 -1.5796186713193171e-02  -1.3496259544038924e-01 0.0000000000000000e+00 -5.4391737559244695e-02  -3.3624970812754423e-02 0.0000000000000000e+00 -8.5422442394052861e-02  -5.0642653810319550e-02 0.0000000000000000e+00 -8.6250182908114328e-02  -9.7786184123271475e-02 0.0000000000000000e+00 -9.7675858853505521e-02  -9.3466862256934832e-02 0.0000000000000000e+00 -8.0393811228092152e-02  -7.9605652501451032e-02 0.0000000000000000e+00 -8.9991703662374925e-02  -6.6602560871822328e-02 0.0000000000000000e+00 -2.6463725736930184e-02  -7.5493953956066118e-02 0.0000000000000000e+00 -1.3935689368004206e-02  -5.9282302302306703e-02 0.0000000000000000e+00 -1.4121516740504164e-02  -7.9361090383140362e-02 0.0000000000000000e+00 -1.0664399761066085e-01  -9.7822198090801379e-02 0.0000000000000000e+00 -1.1846123411989631e-01  -1.1686022153652705e-01 0.0000000000000000e+00 -9.2177208074811903e-02  -6.1544965324575387e-02 0.0000000000000000e+00 -3.9563698919535879e-02  -1.0531869857312745e-01 0.0000000000000000e+00 -3.2544085857482759e-02  -1.1967906606389646e-01 0.0000000000000000e+00 -4.6703749894154892e-02  -1.2388857549886879e-01 0.0000000000000000e+00 -3.0462979829631098e-02  -1.1285139526176484e-01 0.0000000000000000e+00 -1.7063009092897128e-02  -9.3223227994011226e-02 0.0000000000000000e+00 -1.5546787258879143e-02  -8.4626071075288842e-02 0.0000000000000000e+00 -2.8809214505124154e-02  -1.2754557787092574e-01 0.0000000000000000e+00 -7.9709354746555328e-02  -1.0875837031766729e-01 0.0000000000000000e+00 -7.4141690939122373e-02  -7.6276007048501168e-02 0.0000000000000000e+00 -7.0599824149028392e-02  -6.4289797211383018e-02 0.0000000000000000e+00 -8.1328399303274568e-02  -6.4360729360347022e-02 0.0000000000000000e+00 -9.6953932290154615e-02  -1.2857349621017830e-02 0.0000000000000000e+00 -1.2138996594348752e-02  -1.1072806052398211e-01 0.0000000000000000e+00 -1.0643379185295007e-01  -1.0434230912101942e-01 0.0000000000000000e+00 -8.5928095473103996e-02  -9.0758979625510133e-02 0.0000000000000000e+00 -4.6062011407647860e-02  -1.0598547080329752e-01 0.0000000000000000e+00 -5.4062832834593157e-02  -1.1976272773932048e-01 0.0000000000000000e+00 -6.2464285423978173e-02  -7.9394312597854177e-02 0.0000000000000000e+00 -1.2713419754205171e-01  -1.3544066242394606e-01 0.0000000000000000e+00 -6.7861272539416678e-02  -9.2420862259560047e-02 0.0000000000000000e+00 -6.3960841797171833e-02  -1.3808133286319992e-02 0.0000000000000000e+00 -1.5734185668110903e-01  -1.5397375489802209e-01 0.0000000000000000e+00 -1.5284711279454572e-02  -3.9764360018360652e-02 0.0000000000000000e+00 -4.1736468545302045e-02  -1.3536512689395309e-02 -7.0753350612697566e-02 -1.4982835365680883e-01  -1.5272559723538279e-02 -8.4841055175942898e-02 -1.4214973500074995e-01  -1.6056894688962217e-01 -1.2497255672837467e-02 -4.1222530076818482e-02  -4.3035813625784597e-02 -6.9377783714011390e-02 -1.4481830080232785e-01  -5.8174450326356084e-02 -7.7149085601303666e-02 -1.3528276809782533e-01  -4.1912386991268813e-02 -8.6422673180609325e-02 -1.3569152386579778e-01  -5.6219459350925885e-02 -5.7691109946881952e-02 -1.4542632687555507e-01  -6.8614877785491968e-02 -1.1496577185347824e-01 -9.8552255841752215e-02  -8.3969470208217559e-02 -9.9789035450490712e-02 -1.0309695646177801e-01  -8.4012775727941011e-02 -1.1220443359886761e-01 -8.9385306816945634e-02  -9.4958987355461683e-02 -1.0109574691100547e-01 -9.1652527961754465e-02  -3.7664914906796902e-02 -5.3043297679499078e-02 -1.5298860178289131e-01  -2.7560656799368068e-02 -7.9191159326253466e-02 -1.4355116603256274e-01  -2.7539989154632676e-02 -6.4765765565685973e-02 -1.5061448330999250e-01  -8.3346590395376369e-02 -3.7863623313145051e-02 -1.3877137070110479e-01  -7.3403408682374188e-02 -5.1017687408385977e-02 -1.4016735934003505e-01  -6.7486731261230420e-02 -4.0983797752608131e-02 -1.4629989751613159e-01  -1.0302060928204454e-01 -1.2386908610702431e-01 -4.1000201580892168e-02  -1.0435239854289653e-01 -1.1872025343169190e-01 -5.1515899037917208e-02  -1.1156812259247317e-01 -1.1556620269971972e-01 -4.2834732918213297e-02  -8.5715527393072380e-02 -5.1438523197828136e-02 -1.3283337489635696e-01  -1.4961976466409527e-01 -7.1318081098426508e-02 -1.2863179051157197e-02  -1.5597708262018781e-01 -5.5891652157358557e-02 -1.3604875791561067e-02  -3.9287133758261254e-02 -1.6121411784881753e-01 -1.0214530213529855e-02  -4.9762817342725141e-02 -1.5762561316610452e-01 -1.7765266763801361e-02  -5.1562976079352764e-02 -4.0146187564546063e-02 -1.5286372378504390e-01  -7.4526978927912005e-02 -2.9451934941519341e-02 -1.4565771678893188e-01  -8.7550628966548222e-02 -1.7584612686631799e-02 -1.4022660243811147e-01  -6.9831174933057127e-02 -1.4995810716241478e-02 -1.5012201576536746e-01  -1.2674418789529049e-01 -9.7149119776399215e-02 -4.6214041890324020e-02  -1.2965733049429085e-01 -9.9237283049779357e-02 -3.1285212888827359e-02  -1.2077583420329617e-01 -1.0813230560850454e-01 -3.6856597621100856e-02  -1.3596827208867870e-01 -8.8061884343182475e-02 -3.7356717599095424e-02  -1.3804779127469842e-02 -3.1953714204004426e-02 -1.6256144113767204e-01  -1.5640952111379697e-02 -1.2680024966495999e-02 -1.6502261367480814e-01  -2.9267715312562868e-02 -1.9897537311049655e-02 -1.6243566713189514e-01  -9.2700992564227577e-02 -6.0477358621172837e-02 -1.2404345034816215e-01  -7.4078706274593828e-02 -6.5037139164048033e-02 -1.3386648611685353e-01  -1.3399967596279394e-01 -8.1879499146848375e-02 -5.4567306466413133e-02  -1.2213187081627021e-01 -9.3506298854198672e-02 -6.3072361127893162e-02  -1.0681444382311353e-01 -4.8279461282068087e-02 -1.1788793755492658e-01  -1.1687516474910167e-01 -5.0917061628819420e-02 -1.0670257681739131e-01  -1.0540234183292860e-01 -6.2672096756747564e-02 -1.1225120782673136e-01  -6.0705080463314902e-02 -2.7516180938377047e-02 -1.5230096492150211e-01  -9.9129010725270500e-02 -9.0123695107197851e-02 -9.8432290389567856e-02  -9.1200761366219685e-02 -8.4548579125683671e-02 -1.1032562663739703e-01  -9.8428811737820934e-02 -1.0747333798751392e-01 -7.9993870207635848e-02  -3.1231410735853067e-02 -3.7228303439684668e-02 -1.5898568139066807e-01  -1.7027360446501171e-02 -5.1418932633450633e-02 -1.5717490127088876e-01  -3.8810214273482732e-02 -1.0785950714852723e-02 -1.6129273291093404e-01  -8.1247853210601004e-02 -1.4421644997184688e-01 -1.5434191123986947e-02  -9.5473075153053241e-02 -1.3538664463506372e-01 -1.3899019122937617e-02  -1.5489183607100035e-01 -1.3947222419879137e-02 -5.8752218925103808e-02  -1.5813025990308258e-01 -2.6447648361276149e-02 -4.3967504752380863e-02  -9.0688240369872719e-02 -1.1829234640671057e-01 -7.3622856955979615e-02  -1.5088960303464077e-01 -6.4302386136856335e-02 -2.7116999402011129e-02  -1.4804387078813966e-01 -2.1265525568023018e-02 -7.2585547777452936e-02  -1.5122931108937518e-01 -3.2494677629238397e-02 -6.0922912857408501e-02  -8.1619328301740332e-02 -7.7114802719877862e-02 -1.2259419705235797e-01  -8.0139587748161059e-02 -8.9753901163464420e-02 -1.1471534206979431e-01  -6.9523060091716798e-02 -8.6005474480553512e-02 -1.2412620945516817e-01  -1.2213126642284342e-01 -1.5815997220692476e-02 -1.1167647800246676e-01  -1.3429807093811713e-01 -1.6148530238455576e-02 -9.6649452820778289e-02  -4.3246311217742486e-02 -2.4534124868489431e-02 -1.5863693109562899e-01  -5.4267148721359910e-02 -1.2716275903926801e-02 -1.5662461610734005e-01  -7.6315839506697944e-02 -1.2341929217985170e-01 -8.1125203562160755e-02  -1.0184420493063459e-01 -1.1414031840567170e-01 -6.5096215891513848e-02  -1.1112996514514947e-01 -1.0127558811608307e-01 -7.0930593804032382e-02  -1.1600160052777374e-01 -9.0146188176815079e-02 -7.7814357731195410e-02  -1.2550827172704859e-01 -8.0528484283529711e-02 -7.3488732480899988e-02  -1.2821000410120279e-02 -1.1443822952232215e-01 -1.1990549633729874e-01  -1.7073731719894548e-02 -1.2499422999874696e-01 -1.0827148861571476e-01  -1.6001993962054703e-01 -3.4778459441075507e-02 -2.8668605426274196e-02  -1.6335264308628158e-01 -2.7285424790228923e-02 -1.4465988345258661e-02  -1.6040091351582242e-01 -4.1430998160038451e-02 -1.3887108181016853e-02  -1.6249073808797634e-01 -1.8817424101150303e-02 -2.9673264260474147e-02  -1.2697047535612910e-01 -5.1956565073945374e-02 -9.3897835470926810e-02  -1.1623423223020671e-01 -6.5127940327013731e-02 -9.9426990101138396e-02  -1.5480522567750479e-01 -4.2329570205574381e-02 -4.3374489850091139e-02  -1.1617909022074482e-02 -1.3446353675950834e-01 -9.7069049218841783e-02  -2.8846360196745233e-02 -1.3405804117304446e-01 -9.3989825202570029e-02  -5.6428832283383766e-02 -9.3430873032608067e-02 -1.2539595583364024e-01  -1.1367781986687941e-01 -8.0551136893707090e-02 -9.0700827463522662e-02  -1.0340538750728356e-01 -7.6383960443286048e-02 -1.0540677538855854e-01  -1.8891561791442767e-02 -1.4302510476555430e-01 -8.2611663536730010e-02  -3.7060755635253601e-02 -1.4136342928589943e-01 -7.9250375670689210e-02  -2.8003335096373559e-02 -1.4937936496201967e-01 -6.7374726397877574e-02  -1.0604226759927862e-01 -9.5491877351787380e-02 -8.5288429541016786e-02  -9.4888844324031371e-02 -7.3021543747227247e-02 -1.1533315637012140e-01  -1.5617498134611532e-01 -4.9466449510901546e-02 -2.8288658998915580e-02  -1.9948882093046776e-02 -1.5647877742947094e-01 -5.2480118621545856e-02  -3.7148860735610190e-02 -1.5359647968539294e-01 -5.1631475780290363e-02  -2.9822930611751626e-02 -1.5915777434061495e-01 -3.7644622278344059e-02  -4.9034233701066722e-02 -1.5477494157467497e-01 -3.5750087605231164e-02  -4.3966923404723274e-02 -1.3234208777198950e-01 -9.0499965885055031e-02  -3.6214563876184831e-02 -1.2447332084632871e-01 -1.0408000929266843e-01  -1.4367808627637263e-01 -7.9089999110723633e-02 -2.7187560113438463e-02  -1.4351177408266089e-01 -7.3615176490066797e-02 -4.0286159472316389e-02  -1.4074042851692398e-01 -2.5183455209538134e-02 -8.4828199627926232e-02  -1.4363232172411147e-01 -3.5503923821719789e-02 -7.5809490527214307e-02  -1.3441411896659902e-01 -3.5810714201871360e-02 -9.1039958492747930e-02  -1.3729813865066443e-01 -5.1933362113079529e-02 -7.8038274569466257e-02  -1.3576804441563337e-01 -9.3326819914276257e-02 -2.2248130449388559e-02  -1.4187771707590610e-01 -8.5763854648550963e-02 -1.2373288858863957e-02  -1.3471299706724393e-01 -9.6880050698416625e-02 -1.0224048330588676e-02  -6.9326375600831894e-02 -9.9515552116511988e-02 -1.1370217515439347e-01  -1.5045858002406598e-01 -5.7506048074394772e-02 -4.1147046201635701e-02  -1.2673462729347709e-01 -1.0569311927428988e-01 -2.0128283263633535e-02  -5.9668692004292818e-02 -1.5476933629043929e-01 -1.1130969037428202e-02  -1.4230730247706672e-01 -6.8131128354965112e-02 -5.2388980965056502e-02  -4.3176718483128949e-02 -1.0090152487236555e-01 -1.2486943084025037e-01  -2.7469906776122308e-02 -9.4485849889202791e-02 -1.3399856781269279e-01  -3.1910946675255160e-02 -1.0600817843977900e-01 -1.2402315843438132e-01  -4.3187267387189067e-02 -1.1468968965892215e-01 -1.1233371348913575e-01  -2.7089769849567159e-02 -1.1544527152227244e-01 -1.1651739962543073e-01  -1.1806190674269666e-01 -3.4293443770107061e-02 -1.1190680515656905e-01  -1.1265285838367421e-01 -2.2768709668958352e-02 -1.2011978713938634e-01  -1.4834083639490606e-01 -5.1072592639111028e-02 -5.4994902593290533e-02  -1.0209809666100132e-01 -1.6249875817496033e-02 -1.3019133283875634e-01  -1.0568886257524342e-01 -3.2935972830551080e-02 -1.2402784291039544e-01  -1.1092704265052684e-01 -1.0241186819209222e-02 -1.2340261660366444e-01  -1.4502801992669229e-01 -4.5297403176744147e-02 -6.7474882936651298e-02  -1.4227736152210149e-01 -5.8206544978984191e-02 -6.3300947655697049e-02  -8.7178751870276738e-02 -1.3889184131956794e-01 -2.7326246508146437e-02  -9.3543686440624635e-02 -1.3179188173157086e-01 -3.8965016088773653e-02  -9.9674432065669852e-02 -1.3035357360964175e-01 -2.6660203185807821e-02  -8.2446741695801601e-02 -1.3731833337023172e-01 -4.4541865886244085e-02  -8.1375776323770452e-02 -1.278273