<?xml version="1.0"?>
<VTKFile type="UnstructuredGrid"  version="0.1"  >
<UnstructuredGrid>
<Piece  NumberOfPoints="597" NumberOfCells="2124">
<Points>
<DataArray  type="Float64"  NumberOfComponents="3"  format="ascii">0 0 0  1 0 0  0 1 0  0 0 1  0.09999999999981467 0 0  0.1999999999995579 0 0  0.2999999999992664 0 0  0.3999999999989749 0 0  0.4999999999986943 0 0  0.5999999999989468 0 0  0.69999999999921 0 0  0.7999999999994734 0 0  0.8999999999997368 0 0  0 0.09999999999981467 0  0 0.1999999999995579 0  0 0.2999999999992664 0  0 0.3999999999989749 0  0 0.4999999999986943 0  0 0.5999999999989468 0  0 0.69999999999921 0  0 0.7999999999994734 0  0 0.8999999999997368 0  0 0 0.09999999999981467  0 0 0.1999999999995579  0 0 0.2999999999992664  0 0 0.3999999999989749  0 0 0.4999999999986943  0 0 0.5999999999989468  0 0 0.69999999999921  0 0 0.7999999999994734  0 0 0.8999999999997368  0.9951847266502585 0.09801714055230534 0  0.9807852803038259 0.1950903225158687 0  0.9569403355024331 0.2902846780119318 0  0.9238795320817892 0.3826834334019886 0  0.8819212636904032 0.4713967380569389 0  0.8314696113679687 0.5555702344182949 0  0.7730104520841969 0.6343932857215511 0  0.7071067795733449 0.7071067827997501 0  0.634393282646958 0.7730104546074502 0  0.5555702316245595 0.8314696132346829 0  0.471396735522105 0.8819212650453002 0  0.3826834312318057 0.9238795329807084 0  0.2902846763682919 0.9569403360010258 0  0.1950903214145686 0.980785280522888 0  0.0980171400302339 0.995184726701678 0  0.9951847266502585 0 0.09801714055230534  0.9807852803038259 0 0.1950903225158687  0.9569403355024331 0 0.2902846780119318  0.9238795320817892 0 0.3826834334019886  0.8819212636904032 0 0.4713967380569389  0.8314696113679687 0 0.5555702344182949  0.7730104520841969 0 0.6343932857215511  0.7071067795733449 0 0.7071067827997501  0.634393282646958 0 0.7730104546074502  0.5555702316245595 0 0.8314696132346829  0.471396735522105 0 0.8819212650453002  0.3826834312318057 0 0.9238795329807084  0.2902846763682919 0 0.9569403360010258  0.1950903214145686 0 0.980785280522888  0.0980171400302339 0 0.995184726701678  0 0.9951847266502585 0.09801714055230534  0 0.9807852803038259 0.1950903225158687  0 0.9569403355024331 0.2902846780119318  0 0.9238795320817892 0.3826834334019886  0 0.8819212636904032 0.4713967380569389  0 0.8314696113679687 0.5555702344182949  0 0.7730104520841969 0.6343932857215511  0 0.7071067795733449 0.7071067827997501  0 0.634393282646958 0.7730104546074502  0 0.5555702316245595 0.8314696132346829  0 0.471396735522105 0.8819212650453002  0 0.3826834312318057 0.9238795329807084  0 0.2902846763682919 0.9569403360010258  0 0.1950903214145686 0.980785280522888  0 0.0980171400302339 0.995184726701678  0.09240154966779951 0 0.3658235692199516  0.07916357488785433 0 0.4469199030523527  0.1536813483092524 0 0.4301465381022301  0.2555379022644893 0 0.09556049568595243  0.1864593291765566 0 0.2034979771761179  0.301651764011142 0 0.1939053326038485  0.1881720785854029 0 0.3302588474155368  0.08403438330774521 0 0.6437268466185475  0.09138388892861184 0 0.5324072873297468  0.1930859140709486 0 0.7878139522981464  0.2165176696171426 0 0.900824597607195  0.292033522918994 0 0.8485491372975176  0.8037370491763215 0 0.0819245024222376  0.13014171782822 0 0.8868491929551598  0.08390174260734276 0 0.8253161934654943  0.0912526277304111 0 0.7448765232291942  0.8893622411880446 0 0.270275215225845  0.8593018882538136 0 0.1801969264281539  0.8024703672696746 0 0.2475353432181931  0.3476914857890963 0 0.4125368919261175  0.2997235777995208 0 0.3096876237048341  0.2490386282757974 0 0.412527605219857  0.4554126154120848 0 0.2518749964366375  0.39715257119151 0 0.3258159451822259  0.4883877361055989 0 0.3266984434363212  0.08966539318254355 0 0.2701713986717769  0.08377502767602918 0 0.164580120521203  0.3869558528229924 0 0.8037364723405749  0.1791913905804899 0 0.6945879747883159  0.1628348997531483 0 0.5951991143072877  0.2434219731662663 0 0.6106761106298939  0.3204481765543245 0 0.6201302437713152  0.2846206283417919 0 0.7159219267704837  0.3832252637688779 0 0.6893291551637116  0.1561812521325313 0 0.09527745928338882  0.8122499659106144 0 0.3273472587872134  0.2026260329838435 0 0.5147603927306801  0.3051207491780334 0 0.5196560474248884  0.5886190882535927 0 0.5879547877726188  0.5628286668856228 0 0.4841066442899339  0.4793970684942127 0 0.5419440173923771  0.4015076433379883 0 0.1595345792024606  0.4550663848726773 0 0.08400234057127416  0.3574412370957718 0 0.08514557536940835  0.4777735346904641 0 0.6420237002140541  0.5886050303809575 0 0.712791733722679  0.7032448955145116 0 0.5547060123784804  0.3710082806848816 0 0.2384994559961529  0.6343947712920404 0 0.1960314230465952  0.7205780420889929 0 0.2811987241304542  0.745939430962431 0 0.1834190974026157  0.6797060130425652 0 0.1027709852058109  0.5617353506566283 0 0.09368054426051139  0.5099863318045709 0 0.1736146479983669  0.767516113391133 0 0.4796577434100839  0.6547738563668709 0 0.4463662193850245  0.4595209371514753 0 0.4253249285837939  0.3873123962753185 0 0.4899626124422253  0.3876250349852705 0 0.5839247669697213  0.07755778095112512 0 0.07322480571131515  0.6662618639536104 0 0.6404224526940073  0.6281317226641706 0 0.5172795154653362  0.5467991787548994 0 0.2775110285514451  0.6382784164401777 0 0.32558335190295  0.7209625386664502 0 0.3760300013763025  0.4777689774710401 0 0.7650512433185178  0.8150026845526732 0 0.4083495007681245  0.5566757769165783 0 0.3852531587967231  0.08307535298787436 0 0.9466352209487393  0.9264479164039098 0 0.09196696687313166  0.2397696045481275 0 0.2516617606603849  0.08142379610690136 0.4255946222877561 0.9012432429190713  0.09186671735860186 0.5103340042487068 0.8550553843753256  0.9658493887414453 0.07517233868428744 0.2479598309495128  0.2588669386047153 0.4173196613385269 0.8711097567802347  0.349931687668115 0.4640670731596268 0.8137503091088829  0.2521091443082024 0.5198490772623717 0.8162094806026494  0.3381706165708041 0.3470207631890471 0.8747669541105296  0.4127313919422814 0.6915412096022421 0.5928098797483512  0.505094034203222 0.6002477622197614 0.6201472732847281  0.5053541985510116 0.6749299798537994 0.5376677936248502  0.5711974176563547 0.6081084457949028 0.5513053856218164  0.2265606352222516 0.3190644824037021 0.9202543858282597  0.1657801920411619 0.4763492767397394 0.8634861287110075  0.1656568208377873 0.3895779149708851 0.9059728836322062  0.501344556404584 0.2277556352228774 0.8347340932223356  0.4415367071350051 0.3068779784495727 0.8431318061816198  0.4059460944519277 0.2465220798785426 0.8800196773547647  0.6196876017566089 0.7450935593761555 0.2466229186537899  0.627698728320387 0.714123017011242 0.3098751733194038  0.6711018023358704 0.69515091935471 0.2576578549585624  0.5155953815884997 0.3094099022200982 0.7990162169147497  0.899989132227882 0.4289906012996104 0.07737328911389559  0.9382293875188548 0.3361973257557999 0.08183504475860598  0.2363183186651487 0.9697312279355392 0.06144101097726593  0.2993323950146074 0.9481462475789452 0.106858834434898  0.3101615066201264 0.2414838162804179 0.9195028038487859  0.4482922838801319 0.1771577048152243 0.8761559084079369  0.5266326972169642 0.1057746683003005 0.8434866458741044  0.4200451415729211 0.09020206018716082 0.9030092288448531  0.7623891105001969 0.5843698709159578 0.2779832695620105  0.7799115838824263 0.596929282445646 0.1881843592994147  0.7264879983305693 0.6504346235700518 0.2216979673856474  0.8178732076005444 0.5297083005156807 0.2247054353013872  0.08303734348179403 0.1922053315992417 0.9778353184930026  0.09408269694107538 0.07627092328721888 0.9926385003601306  0.1760515877647063 0.1196852712822077 0.9770779264130525  0.5576143975194612 0.3637809431371279 0.7461431558952143  0.4455986119305068 0.3912097319557027 0.8052309126385754  0.8060332204752099 0.4925189261569118 0.3282309474556054  0.7346451337886817 0.5624574787189985 0.379391765901261  0.642508165502269 0.2904084282097414 0.7091164940174894  0.7030254185009037 0.306273768786429 0.6418345888895255  0.6340141384684502 0.3769833468372913 0.6752108029567235  0.365152486570974 0.1655128603952953 0.9161163433728284  0.5962792236506059 0.542109883053058 0.5920877993497508  0.5485896415631504 0.5085733599282969 0.6636283167111371  0.5920678220815722 0.6464708649476155 0.4811768020483384  0.1878625042731283 0.2239323962641036 0.9563273296270713  0.1024217313722561 0.3092935774102874 0.9454349644028699  0.2334505071908325 0.06487815783086033 0.9702018786463037  0.4887206245964966 0.8674866792832123 0.09283863613924619  0.5742874233407752 0.8143734795796027 0.08360497084518105  0.9317006522490203 0.08389294215323394 0.3534060962343804  0.951181716421189 0.1590863374964037 0.2644709427669156  0.5455072387620422 0.7115493400103802 0.4428536882413925  0.9076276342048921 0.3867895805147213 0.1631131448807132  0.8905082493452895 0.127913990281725 0.4366154703376809  0.9096700297655037 0.1954608695184058 0.3664634844476816  0.4909557921631998 0.4638599224188366 0.7374255098075979  0.4820557633059458 0.5398846258057163 0.6900339353119844  0.4181956098394346 0.5173376920524271 0.7466419116905315  0.7346402167242096 0.09513558808181954 0.67175365414096  0.8078263850243458 0.09713596463829366 0.5813614504181416  0.2601336813274003 0.1475738587985683 0.954228706358363  0.3264256065230105 0.07648882390671821 0.9421230191559125  0.4590556119879899 0.7423895417623142 0.4879812633537003  0.6126112913498895 0.686574629053208 0.3915644065170771  0.6684671903139626 0.6091898762120843 0.4266606499250449  0.6977699223891808 0.542245960309553 0.4680667195357594  0.7549550374165268 0.4843931863016896 0.4420476586793638  0.07712060794257616 0.6883652307079324 0.7212528828247291  0.1027005936763692 0.7518617879958691 0.6512729380299598  0.9625479306552708 0.2091983633587219 0.1724457188778192  0.9825939555666527 0.1641265719497667 0.08701486576382911  0.964839163020035 0.2492141217550538 0.08353269432177644  0.97740960683
[...]
<PointData  Vectors="Solid displacement [m]"> 
<DataArray  type="Float64"  Name="Solid displacement [m]"  NumberOfComponents="3" format="ascii">0.0000000000000000e+00 0.0000000000000000e+00 0.0000000000000000e+00  -1.6649396820790729e-01 0.0000000000000000e+00 0.0000000000000000e+00  0.0000000000000000e+00 -1.6649395742870313e-01 0.0000000000000000e+00  0.0000000000000000e+00 0.0000000000000000e+00 -1.6649400677606283e-01  -1.6630052297343240e-02 0.0000000000000000e+00 0.0000000000000000e+00  -3.3261781872603764e-02 0.0000000000000000e+00 0.0000000000000000e+00  -4.9896350916008858e-02 0.0000000000000000e+00 0.0000000000000000e+00  -6.6535098551935512e-02 0.0000000000000000e+00 0.0000000000000000e+00  -8.3179189374532767e-02 0.0000000000000000e+00 0.0000000000000000e+00  -9.9829272392007687e-02 0.0000000000000000e+00 0.0000000000000000e+00  -1.1648585257440629e-01 0.0000000000000000e+00 0.0000000000000000e+00  -1.3314901767474505e-01 0.0000000000000000e+00 0.0000000000000000e+00  -1.4981855993898649e-01 0.0000000000000000e+00 0.0000000000000000e+00  0.0000000000000000e+00 -1.6630071092274726e-02 0.0000000000000000e+00  0.0000000000000000e+00 -3.3261680162048217e-02 0.0000000000000000e+00  0.0000000000000000e+00 -4.9896236500905633e-02 0.0000000000000000e+00  0.0000000000000000e+00 -6.6535072604519074e-02 0.0000000000000000e+00  0.0000000000000000e+00 -8.3179157254108377e-02 0.0000000000000000e+00  0.0000000000000000e+00 -9.9829254470773121e-02 0.0000000000000000e+00  0.0000000000000000e+00 -1.1648582900726714e-01 0.0000000000000000e+00  0.0000000000000000e+00 -1.3314903382523316e-01 0.0000000000000000e+00  0.0000000000000000e+00 -1.4981861791115145e-01 0.0000000000000000e+00  0.0000000000000000e+00 0.0000000000000000e+00 -1.6630060381910044e-02  0.0000000000000000e+00 0.0000000000000000e+00 -3.3261751468083307e-02  0.0000000000000000e+00 0.0000000000000000e+00 -4.9896285272463821e-02  0.0000000000000000e+00 0.0000000000000000e+00 -6.6535052663247454e-02  0.0000000000000000e+00 0.0000000000000000e+00 -8.3179160253793183e-02  0.0000000000000000e+00 0.0000000000000000e+00 -9.9829249384144364e-02  0.0000000000000000e+00 0.0000000000000000e+00 -1.1648579548859124e-01  0.0000000000000000e+00 0.0000000000000000e+00 -1.3314899697694282e-01  0.0000000000000000e+00 0.0000000000000000e+00 -1.4981861358652673e-01  -1.6569226470447937e-01 -1.6319299206712476e-02 0.0000000000000000e+00  -1.6329483741197448e-01 -3.2481385520106931e-02 0.0000000000000000e+00  -1.5932477524046093e-01 -4.8330677241245630e-02 0.0000000000000000e+00  -1.5382032933001646e-01 -6.3714487517400512e-02 0.0000000000000000e+00  -1.4683454212268429e-01 -7.8484684777952937e-02 0.0000000000000000e+00  -1.3843469358629240e-01 -9.2499058614926008e-02 0.0000000000000000e+00  -1.2870151859927564e-01 -1.0562272591054735e-01 0.0000000000000000e+00  -1.1772897999681367e-01 -1.1772907386192061e-01 0.0000000000000000e+00  -1.0562256056747896e-01 -1.2870164431351891e-01 0.0000000000000000e+00  -9.2498980697477001e-02 -1.3843471301422100e-01 0.0000000000000000e+00  -7.8484743777768512e-02 -1.4683450202300982e-01 0.0000000000000000e+00  -6.3714386346265681e-02 -1.5382034384422252e-01 0.0000000000000000e+00  -4.8330657992936531e-02 -1.5932469504593838e-01 0.0000000000000000e+00  -3.2481362079601180e-02 -1.6329479655912524e-01 0.0000000000000000e+00  -1.6319325792749948e-02 -1.6569226622374453e-01 0.0000000000000000e+00  -1.6569228027324484e-01 0.0000000000000000e+00 -1.6319292800679598e-02  -1.6329486404047935e-01 0.0000000000000000e+00 -3.2481287595389666e-02  -1.5932478334468078e-01 0.0000000000000000e+00 -4.8330699122218053e-02  -1.5382045056975477e-01 0.0000000000000000e+00 -6.3714372323955673e-02  -1.4683461456826877e-01 0.0000000000000000e+00 -7.8484800935050975e-02  -1.3843464390584090e-01 0.0000000000000000e+00 -9.2499245581687789e-02  -1.2870154464142733e-01 0.0000000000000000e+00 -1.0562266588289725e-01  -1.1772910236503030e-01 0.0000000000000000e+00 -1.1772895189690749e-01  -1.0562255710127860e-01 0.0000000000000000e+00 -1.2870171921979684e-01  -9.2499018770391447e-02 0.0000000000000000e+00 -1.3843467406245541e-01  -7.8484776424624467e-02 0.0000000000000000e+00 -1.4683451416356591e-01  -6.3714573773447886e-02 0.0000000000000000e+00 -1.5382039016683621e-01  -4.8330664945137956e-02 0.0000000000000000e+00 -1.5932486686285061e-01  -3.2481191331175725e-02 0.0000000000000000e+00 -1.6329489464258040e-01  -1.6319295723103082e-02 0.0000000000000000e+00 -1.6569232732611394e-01  0.0000000000000000e+00 -1.6569222193701835e-01 -1.6319472048068728e-02  0.0000000000000000e+00 -1.6329474599318972e-01 -3.2481398760187158e-02  0.0000000000000000e+00 -1.5932462633774769e-01 -4.8330796848588119e-02  0.0000000000000000e+00 -1.5382030073312189e-01 -6.3714415696190976e-02  0.0000000000000000e+00 -1.4683447950988221e-01 -7.8484686829948011e-02  0.0000000000000000e+00 -1.3843472663948808e-01 -9.2498891382336759e-02  0.0000000000000000e+00 -1.2870151031261692e-01 -1.0562266438259171e-01  0.0000000000000000e+00 -1.1772905381757640e-01 -1.1772888158062095e-01  0.0000000000000000e+00 -1.0562264610103521e-01 -1.2870149420028021e-01  0.0000000000000000e+00 -9.2499011416335888e-02 -1.3843465376808989e-01  0.0000000000000000e+00 -7.8484699227080457e-02 -1.4683451343890777e-01  0.0000000000000000e+00 -6.3714396281632585e-02 -1.5382035199224398e-01  0.0000000000000000e+00 -4.8330658218885054e-02 -1.5932474919925166e-01  0.0000000000000000e+00 -3.2481464387600127e-02 -1.6329483667511863e-01  0.0000000000000000e+00 -1.6319415784701436e-02 -1.6569229483476933e-01  -1.5369496562889402e-02 0.0000000000000000e+00 -6.0848726626907830e-02  -1.3168790757468629e-02 0.0000000000000000e+00 -7.4344394928095386e-02  -2.5564738510676657e-02 0.0000000000000000e+00 -7.1554450032191727e-02  -4.2500407424919104e-02 0.0000000000000000e+00 -1.5893345856284102e-02  -3.1011505364300949e-02 0.0000000000000000e+00 -3.3845304471246250e-02  -5.0173858658169236e-02 0.0000000000000000e+00 -3.2252320459617526e-02  -3.1299426689996690e-02 0.0000000000000000e+00 -5.4933317171659599e-02  -1.3982902271026080e-02 0.0000000000000000e+00 -1.0711274681346439e-01  -1.5203348967057441e-02 0.0000000000000000e+00 -8.8575266072638409e-02  -3.2137135612817010e-02 0.0000000000000000e+00 -1.3112332102310759e-01  -3.6044299220499072e-02 0.0000000000000000e+00 -1.4996279501685389e-01  -4.8613167237169040e-02 0.0000000000000000e+00 -1.4125320049596382e-01  -1.3377281225940579e-01 0.0000000000000000e+00 -1.3635376277432134e-02  -2.1663938019333605e-02 0.0000000000000000e+00 -1.4762850685436674e-01  -1.3965028736349409e-02 0.0000000000000000e+00 -1.3736952252578893e-01  -1.5186492884615859e-02 0.0000000000000000e+00 -1.2396399602603558e-01  -1.4805536635673330e-01 0.0000000000000000e+00 -4.4993708322568285e-02  -1.4303827788270948e-01 0.0000000000000000e+00 -2.9995354926838681e-02  -1.3356931685660883e-01 0.0000000000000000e+00 -4.1201697716928672e-02  -5.7844562458320432e-02 0.0000000000000000e+00 -6.8632655260412248e-02  -4.9857193330241745e-02 0.0000000000000000e+00 -5.1514605857830804e-02  -4.1428678333806160e-02 0.0000000000000000e+00 -6.8625750529378415e-02  -7.5763794421123812e-02 0.0000000000000000e+00 -4.1902715085860485e-02  -6.6070890605956292e-02 0.0000000000000000e+00 -5.4203227942892028e-02  -8.1257470381367200e-02 0.0000000000000000e+00 -5.4355778908056714e-02  -1.4913021237793969e-02 0.0000000000000000e+00 -4.4934610733559796e-02  -1.3932387946835342e-02 0.0000000000000000e+00 -2.7370856497625450e-02  -6.4413747144969183e-02 0.0000000000000000e+00 -1.3379218343681662e-01  -2.9819776536312251e-02 0.0000000000000000e+00 -1.1558851130332611e-01  -2.7093507681906662e-02 0.0000000000000000e+00 -9.9033020628865029e-02  -4.0504666389175686e-02 0.0000000000000000e+00 -1.0161459305040682e-01  -5.3325067480476468e-02 0.0000000000000000e+00 -1.0319450415390155e-01  -4.7368810173731117e-02 0.0000000000000000e+00 -1.1914935895630163e-01  -6.3781336305064565e-02 0.0000000000000000e+00 -1.1472714245629062e-01  -2.5974047166600997e-02 0.0000000000000000e+00 -1.5845313483022924e-02  -1.3520554862474490e-01 0.0000000000000000e+00 -5.4489613616098172e-02  -3.3711003032774606e-02 0.0000000000000000e+00 -8.5640980902255859e-02  -5.0766843275627367e-02 0.0000000000000000e+00 -8.6461770919534123e-02  -9.7972934126681219e-02 0.0000000000000000e+00 -9.7862378229017360e-02  -9.3665935689656879e-02 0.0000000000000000e+00 -8.0565027404125272e-02  -7.9778771203708576e-02 0.0000000000000000e+00 -9.0187468397447845e-02  -6.6788357925334385e-02 0.0000000000000000e+00 -2.6537584408727395e-02  -7.5700407882222487e-02 0.0000000000000000e+00 -1.3973805978154003e-02  -5.9453876498574511e-02 0.0000000000000000e+00 -1.4162409151271840e-02  -7.9518876101138961e-02 0.0000000000000000e+00 -1.0685605344387947e-01  -9.7986351180112910e-02 0.0000000000000000e+00 -1.1865999685690069e-01  -1.1706480060388473e-01 0.0000000000000000e+00 -9.2338506092015632e-02  -6.1715662266044288e-02 0.0000000000000000e+00 -3.9673399536872864e-02  -1.0556245557082859e-01 0.0000000000000000e+00 -3.2619386221817988e-02  -1.1992489145550839e-01 0.0000000000000000e+00 -4.6799602448104362e-02  -1.2414464495942348e-01 0.0000000000000000e+00 -3.0525939125269543e-02  -1.1310644981171500e-01 0.0000000000000000e+00 -1.7101589763351369e-02  -9.3458482277058219e-02 0.0000000000000000e+00 -1.5586044442998442e-02  -8.4845018726914995e-02 0.0000000000000000e+00 -2.8883773858132053e-02  -1.2776577650913509e-01 0.0000000000000000e+00 -7.9846975073538898e-02  -1.0897670225328761e-01 0.0000000000000000e+00 -7.4290549630569858e-02  -7.6459115427014737e-02 0.0000000000000000e+00 -7.0769293260194793e-02  -6.4444305506909452e-02 0.0000000000000000e+00 -8.1524009019856125e-02  -6.4504147027464695e-02 0.0000000000000000e+00 -9.7170058824311109e-02  -1.2897967922564511e-02 0.0000000000000000e+00 -1.2177370628468399e-02  -1.1091397763686742e-01 0.0000000000000000e+00 -1.0661246284222799e-01  -1.0454632868334529e-01 0.0000000000000000e+00 -8.6096087749747321e-02  -9.0979438930613457e-02 0.0000000000000000e+00 -4.6173842450777422e-02  -1.0621774108157413e-01 0.0000000000000000e+00 -5.4181281168870013e-02  -1.1999701876658876e-01 0.0000000000000000e+00 -6.2586458377270518e-02  -7.9532078924722235e-02 0.0000000000000000e+00 -1.2735473118458387e-01  -1.3567225701955143e-01 0.0000000000000000e+00 -6.7977316338108690e-02  -9.2632023490987203e-02 0.0000000000000000e+00 -6.4106954616642536e-02  -1.3830377866182016e-02 0.0000000000000000e+00 -1.5759557975925689e-01  -1.5422956996206033e-01 0.0000000000000000e+00 -1.5310112170377877e-02  -3.9880558841014720e-02 0.0000000000000000e+00 -4.1858509978542062e-02  -1.3556613523642260e-02 -7.0858854342953817e-02 -1.5005154452485830e-01  -1.5295276165151611e-02 -8.4967487909313119e-02 -1.4236152178485748e-01  -1.6080810162638109e-01 -1.2515793829639686e-02 -4.1283862617266021e-02  -4.3099837114202344e-02 -6.9481170576595530e-02 -1.4503430742653986e-01  -5.8261344394438301e-02 -7.7264215674654302e-02 -1.3548441473529552e-01  -4.1974718277286202e-02 -8.6551596425106778e-02 -1.3589382215896537e-01  -5.6303297325522472e-02 -5.7776935524701693e-02 -1.4564322119754608e-01  -6.8717200907072631e-02 -1.1513726310765396e-01 -9.8699177397656240e-02  -8.4094875881903550e-02 -9.9937646296115054e-02 -1.0325067155637117e-01  -8.4138213923935404e-02 -1.1237168315409106e-01 -8.9518443709841689e-02  -9.5100719614874790e-02 -1.0124636222516667e-01 -9.1789029243903197e-02  -3.7720993982347448e-02 -5.3122308376320253e-02 -1.5321666804201481e-01  -2.7601527249163954e-02 -7.9309211564774149e-02 -1.4376512845787109e-01  -2.7580921920293471e-02 -6.4862314935146256e-02 -1.5083893713689911e-01  -8.3470798294229029e-02 -3.7919972359981936e-02 -1.3897813960524666e-01  -7.3513010386103514e-02 -5.1093473416426290e-02 -1.4037626686695909e-01  -6.7587442315619944e-02 -4.1044604293540121e-02 -1.4651790129213896e-01  -1.0317416841150784e-01 -1.2405358362487390e-01 -4.1061245321885757e-02  -1.0450795980284651e-01 -1.1889713691188791e-01 -5.1592463186165755e-02  -1.1173435969426912e-01 -1.1573839350392214e-01 -4.2898501178918420e-02  -8.5843388161244746e-02 -5.1514987582966271e-02 -1.3303131664630527e-01  -1.4984270252990409e-01 -7.1424330666076619e-02 -1.2882248415078644e-02  -1.5620948056076522e-01 -5.5974857056178211e-02 -1.3625081689556914e-02  -3.9345605682730114e-02 -1.6145433432386594e-01 -1.0229634285642298e-02  -4.9836996712678411e-02 -1.5786053223207760e-01 -1.7791505646634939e-02  -5.1639920315072051e-02 -4.0205756707139766e-02 -1.5309156284029790e-01  -7.4637970495000774e-02 -2.9495735675715493e-02 -1.4587467147803268e-01  -8.7681111934531542e-02 -1.7610827840743321e-02 -1.4043544919756693e-01  -6.9935065781459985e-02 -1.5018118393022362e-02 -1.5034560068485886e-01  -1.2693309797429964e-01 -9.7293960511149330e-02 -4.6282676373105264e-02  -1.2985052327183222e-01 -9.9385111799586201e-02 -3.1331663374866377e-02  -1.2095581024783775e-01 -1.0829340980375642e-01 -3.6911423425701438e-02  -1.3617088827771462e-01 -8.8193159781683433e-02 -3.7412205974106855e-02  -1.3825267677206670e-02 -3.2001143065641106e-02 -1.6280363616230265e-01  -1.5664220879848860e-02 -1.2698756437931235e-02 -1.6526835782910307e-01  -2.9311437568164383e-02 -1.9926998058721310e-02 -1.6267759233430751e-01  -9.2839283234118317e-02 -6.0567375594819776e-02 -1.2422828278897152e-01  -7.4189301556014095e-02 -6.5134039590604542e-02 -1.3406600164691765e-01  -1.3419950262369915e-01 -8.2001440619456217e-02 -5.4648517761467265e-02  -1.2231390051812127e-01 -9.3645693485200104e-02 -6.3166384887808041e-02  -1.0697365425165417e-01 -4.8351300813697720e-02 -1.1806358115626388e-01  -1.1704939066025832e-01 -5.0992802963070641e-02 -1.0686155409286928e-01  -1.0555944957826006e-01 -6.2765449621640032e-02 -1.1241847483304984e-01  -6.0795609224891620e-02 -2.7557004604179956e-02 -1.5252783120950644e-01  -9.9276797760574909e-02 -9.0257986648751301e-02 -9.8578987324665190e-02  -9.1336757527334167e-02 -8.4674443550828260e-02 -1.1049004630882631e-01  -9.8575596515265582e-02 -1.0763346493813467e-01 -8.0113028032636674e-02  -3.1277955274723178e-02 -3.7283541037743700e-02 -1.5922263024757333e-01  -1.7052650336886348e-02 -5.1495516667019500e-02 -1.5740913186990932e-01  -3.8868068154082669e-02 -1.0801901536447464e-02 -1.6153284730588011e-01  -8.1368967364871758e-02 -1.4443128105059827e-01 -1.5457116740785613e-02  -9.5615345368579394e-02 -1.3558828255787503e-01 -1.3919722445744654e-02  -1.5512253969988274e-01 -1.3967803158983197e-02 -5.8839878554089078e-02  -1.5836592405358182e-01 -2.6486967072332140e-02 -4.4032888856898898e-02  -9.0823522041472440e-02 -1.1846861770584814e-01 -7.3732487277069825e-02  -1.5111445277306218e-01 -6.4398144326766230e-02 -2.7157368825432508e-02  -1.4826430295939966e-01 -2.1297027569493362e-02 -7.2693767855689095e-02  -1.5145456803219265e-01 -3.2543064537061843e-02 -6.1013834711198409e-02  -8.1741062705643949e-02 -7.7229790083085961e-02 -1.2277685697741142e-01  -8.0259202733573926e-02 -8.9887555119650381e-02 -1.1488637227800035e-01  -6.9626868199135369e-02 -8.6133593278175227e-02 -1.2431125802044957e-01  -1.2231316939489516e-01 -1.5839523286613491e-02 -1.1184288392185157e-01  -1.3449817200229455e-01 -1.6172564760681261e-02 -9.6793270568471743e-02  -4.3310703611502986e-02 -2.4570366621777764e-02 -1.5887327890115799e-01  -5.4347928538037125e-02 -1.2735046158708452e-02 -1.5685784183488938e-01  -7.6429792847478431e-02 -1.2360327381852015e-01 -8.1245977660363816e-02  -1.0199600805511524e-01 -1.1431044880177270e-01 -6.5193137348662722e-02  -1.1129564578835810e-01 -1.0142643742804291e-01 -7.1036349725687092e-02  -1.1617444094347193e-01 -9.0280589573674783e-02 -7.7930274634637878e-02  -1.2569535787775846e-01 -8.0648496315871648e-02 -7.3598236856541016e-02  -1.2840108133299102e-02 -1.1460866773045426e-01 -1.2008418728034478e-01  -1.7099083925897665e-02 -1.2518043256015365e-01 -1.0843290862081365e-01  -1.6025836635271315e-01 -3.4830263547078404e-02 -2.8711227047918862e-02  -1.6359595993391091e-01 -2.7326076475801726e-02 -1.4487484978084966e-02  -1.6063986937686783e-01 -4.1492672617784672e-02 -1.3907731886820951e-02  -1.6273278648345196e-01 -1.8845399401471181e-02 -2.9717468674688205e-02  -1.2715970277490318e-01 -5.2033804128748036e-02 -9.4037812511735208e-02  -1.1640746621849103e-01 -6.5224871444537966e-02 -9.9575235307770127e-02  -1.5503589655824229e-01 -4.2392665216611211e-02 -4.3439067230023262e-02  -1.1635079724919634e-02 -1.3466380496674984e-01 -9.7213751486887476e-02  -2.8889371953229930e-02 -1.3425782314219187e-01 -9.4129937114299525e-02  -5.6512979331775320e-02 -9.3570176177605879e-02 -1.2558296032905675e-01  -1.1384720153000388e-01 -8.0671234447019499e-02 -9.0835986743556238e-02  -1.0355946249199981e-01 -7.6497723348110044e-02 -1.0556394105334715e-01  -1.8919736460523043e-02 -1.4323823177018025e-01 -8.2734857767135780e-02  -3.7116014231725981e-02 -1.4157412590437682e-01 -7.9368540181639038e-02  -2.8045063663542782e-02 -1.4960204394130527e-01 -6.7475161093017821e-02  -1.0620034658720959e-01 -9.5634180527064933e-02 -8.5415465581729688e-02  -9.5030356882006201e-02 -7.3130362039465768e-02 -1.1550494597821025e-01  -1.5640769373598090e-01 -4.9540121750806534e-02 -2.8330759633117333e-02  -1.9978613211610131e-02 -1.5671207620703853e-01 -5.2558271939604891e-02  -3.7204185896667026e-02 -1.5382547818503697e-01 -5.1708426956779054e-02  -2.9867312418288414e-02 -1.5939509504262236e-01 -3.7700614902939501e-02  -4.9107392053506990e-02 -1.5500573750949032e-01 -3.5803190414731220e-02  -4.4032363044631526e-02 -1.3253933256205544e-01 -9.0634883011796244e-02  -3.6268535368921710e-02 -1.2465883689923075e-01 -1.0423515989806485e-01  -1.4389219345805285e-01 -7.9207864825740479e-02 -2.7228024947781510e-02  -1.4372565793050340e-01 -7.3724800611684668e-02 -4.0346120511788895e-02  -1.4095003526729499e-01 -2.5220827328781958e-02 -8.4954452275644285e-02  -1.4384630547929389e-01 -3.5556659578727563e-02 -7.5922372481894790e-02  -1.3461440226108481e-01 -3.5863848195971340e-02 -9.1175563386537886e-02  -1.3750279702829979e-01 -5.2010610071906549e-02 -7.8154390933269910e-02  -1.3597025818760922e-01 -9.3465905347823036e-02 -2.2281149453613820e-02  -1.4208903259415553e-01 -8.5891703963608318e-02 -1.2391646713144180e-02  -1.3491366857487030e-01 -9.7024269326930049e-02 -1.0239234422318513e-02  -6.9429856196236525e-02 -9.9663791487041256e-02 -1.1387183112794234e-01  -1.5068276538130079e-01 -5.7591679084388198e-02 -4.1208345124395508e-02  -1.2692346139056684e-01 -1.0585047316203887e-01 -2.0158214629871093e-02  -5.9757731643737835e-02 -1.5499989761516747e-01 -1.1147461544616134e-02  -1.4251936711291721e-01 -6.8232524065399897e-02 -5.2466978524030213e-02  -4.3240917886923712e-02 -1.0105198736602164e-01 -1.2505561858472755e-01  -2.7510661183102490e-02 -9.4626725292784125e-02 -1.3419822102789594e-01  -3.1958327105822464e-02 -1.0616613459477756e-01 -1.2420802190216010e-01  -4.3251542326064367e-02 -1.1486071121002277e-01 -1.1250116763640206e-01  -2.7130012716914727e-02 -1.1561726026764885e-01 -1.1669113368085451e-01  -1.1823790592490413e-01 -3.4344420565256939e-02 -1.1207352168641121e-01  -1.1282065546489591e-01 -2.2802503258781980e-02 -1.2029873143269738e-01  -1.4856176354980835e-01 -5.1148668630724967e-02 -5.5076846278555032e-02  -1.0225030176778246e-01 -1.6274070730002189e-02 -1.3038511221368179e-01  -1.0584632974262766e-01 -3.2984884894890161e-02 -1.2421264495499658e-01  -1.1109220686256023e-01 -1.0256372525789672e-02 -1.2358636361439689e-01  -1.4524404611568931e-01 -4.5364865522294913e-02 -6.7575395961144438e-02  -1.4248934275765821e-01 -5.8293111798362787e-02 -6.3395157185084886e-02  -8.7308725574030896e-02 -1.3909875239818664e-01 -2.7366869765900401e-02  -9.3683182806261658e-02 -1.3198821360529678e-01 -3.9022959483545561e-02  -9.9822942876878859e-02 -1.3054778683815091e-01 -2.6699849181840516e-02  -8.2569713392911498e-02 -1.3752295839641834e-01 -4.4608140852495648e-02  -8.1497155011297007e-02 -1.280179