<?xml version="1.0"?>
<VTKFile type="UnstructuredGrid"  version="0.1"  >
<UnstructuredGrid>
<Piece  NumberOfPoints="597" NumberOfCells="2124">
<Points>
<DataArray  type="Float64"  NumberOfComponents="3"  format="ascii">0 0 0  1 0 0  0 1 0  0 0 1  0.09999999999981467 0 0  0.1999999999995579 0 0  0.2999999999992664 0 0  0.3999999999989749 0 0  0.4999999999986943 0 0  0.5999999999989468 0 0  0.69999999999921 0 0  0.7999999999994734 0 0  0.8999999999997368 0 0  0 0.09999999999981467 0  0 0.1999999999995579 0  0 0.2999999999992664 0  0 0.3999999999989749 0  0 0.4999999999986943 0  0 0.5999999999989468 0  0 0.69999999999921 0  0 0.7999999999994734 0  0 0.8999999999997368 0  0 0 0.09999999999981467  0 0 0.1999999999995579  0 0 0.2999999999992664  0 0 0.3999999999989749  0 0 0.4999999999986943  0 0 0.5999999999989468  0 0 0.69999999999921  0 0 0.7999999999994734  0 0 0.8999999999997368  0.9951847266502585 0.09801714055230534 0  0.9807852803038259 0.1950903225158687 0  0.9569403355024331 0.2902846780119318 0  0.9238795320817892 0.3826834334019886 0  0.8819212636904032 0.4713967380569389 0  0.8314696113679687 0.5555702344182949 0  0.7730104520841969 0.6343932857215511 0  0.7071067795733449 0.7071067827997501 0  0.634393282646958 0.7730104546074502 0  0.5555702316245595 0.8314696132346829 0  0.471396735522105 0.8819212650453002 0  0.3826834312318057 0.9238795329807084 0  0.2902846763682919 0.9569403360010258 0  0.1950903214145686 0.980785280522888 0  0.0980171400302339 0.995184726701678 0  0.9951847266502585 0 0.09801714055230534  0.9807852803038259 0 0.1950903225158687  0.9569403355024331 0 0.2902846780119318  0.9238795320817892 0 0.3826834334019886  0.8819212636904032 0 0.4713967380569389  0.8314696113679687 0 0.5555702344182949  0.7730104520841969 0 0.6343932857215511  0.7071067795733449 0 0.7071067827997501  0.634393282646958 0 0.7730104546074502  0.5555702316245595 0 0.8314696132346829  0.471396735522105 0 0.8819212650453002  0.3826834312318057 0 0.9238795329807084  0.2902846763682919 0 0.9569403360010258  0.1950903214145686 0 0.980785280522888  0.0980171400302339 0 0.995184726701678  0 0.9951847266502585 0.09801714055230534  0 0.9807852803038259 0.1950903225158687  0 0.9569403355024331 0.2902846780119318  0 0.9238795320817892 0.3826834334019886  0 0.8819212636904032 0.4713967380569389  0 0.8314696113679687 0.5555702344182949  0 0.7730104520841969 0.6343932857215511  0 0.7071067795733449 0.7071067827997501  0 0.634393282646958 0.7730104546074502  0 0.5555702316245595 0.8314696132346829  0 0.471396735522105 0.8819212650453002  0 0.3826834312318057 0.9238795329807084  0 0.2902846763682919 0.9569403360010258  0 0.1950903214145686 0.980785280522888  0 0.0980171400302339 0.995184726701678  0.09240154966779951 0 0.3658235692199516  0.07916357488785433 0 0.4469199030523527  0.1536813483092524 0 0.4301465381022301  0.2555379022644893 0 0.09556049568595243  0.1864593291765566 0 0.2034979771761179  0.301651764011142 0 0.1939053326038485  0.1881720785854029 0 0.3302588474155368  0.08403438330774521 0 0.6437268466185475  0.09138388892861184 0 0.5324072873297468  0.1930859140709486 0 0.7878139522981464  0.2165176696171426 0 0.900824597607195  0.292033522918994 0 0.8485491372975176  0.8037370491763215 0 0.0819245024222376  0.13014171782822 0 0.8868491929551598  0.08390174260734276 0 0.8253161934654943  0.0912526277304111 0 0.7448765232291942  0.8893622411880446 0 0.270275215225845  0.8593018882538136 0 0.1801969264281539  0.8024703672696746 0 0.2475353432181931  0.3476914857890963 0 0.4125368919261175  0.2997235777995208 0 0.3096876237048341  0.2490386282757974 0 0.412527605219857  0.4554126154120848 0 0.2518749964366375  0.39715257119151 0 0.3258159451822259  0.4883877361055989 0 0.3266984434363212  0.08966539318254355 0 0.2701713986717769  0.08377502767602918 0 0.164580120521203  0.3869558528229924 0 0.8037364723405749  0.1791913905804899 0 0.6945879747883159  0.1628348997531483 0 0.5951991143072877  0.2434219731662663 0 0.6106761106298939  0.3204481765543245 0 0.6201302437713152  0.2846206283417919 0 0.7159219267704837  0.3832252637688779 0 0.6893291551637116  0.1561812521325313 0 0.09527745928338882  0.8122499659106144 0 0.3273472587872134  0.2026260329838435 0 0.5147603927306801  0.3051207491780334 0 0.5196560474248884  0.5886190882535927 0 0.5879547877726188  0.5628286668856228 0 0.4841066442899339  0.4793970684942127 0 0.5419440173923771  0.4015076433379883 0 0.1595345792024606  0.4550663848726773 0 0.08400234057127416  0.3574412370957718 0 0.08514557536940835  0.4777735346904641 0 0.6420237002140541  0.5886050303809575 0 0.712791733722679  0.7032448955145116 0 0.5547060123784804  0.3710082806848816 0 0.2384994559961529  0.6343947712920404 0 0.1960314230465952  0.7205780420889929 0 0.2811987241304542  0.745939430962431 0 0.1834190974026157  0.6797060130425652 0 0.1027709852058109  0.5617353506566283 0 0.09368054426051139  0.5099863318045709 0 0.1736146479983669  0.767516113391133 0 0.4796577434100839  0.6547738563668709 0 0.4463662193850245  0.4595209371514753 0 0.4253249285837939  0.3873123962753185 0 0.4899626124422253  0.3876250349852705 0 0.5839247669697213  0.07755778095112512 0 0.07322480571131515  0.6662618639536104 0 0.6404224526940073  0.6281317226641706 0 0.5172795154653362  0.5467991787548994 0 0.2775110285514451  0.6382784164401777 0 0.32558335190295  0.7209625386664502 0 0.3760300013763025  0.4777689774710401 0 0.7650512433185178  0.8150026845526732 0 0.4083495007681245  0.5566757769165783 0 0.3852531587967231  0.08307535298787436 0 0.9466352209487393  0.9264479164039098 0 0.09196696687313166  0.2397696045481275 0 0.2516617606603849  0.08142379610690136 0.4255946222877561 0.9012432429190713  0.09186671735860186 0.5103340042487068 0.8550553843753256  0.9658493887414453 0.07517233868428744 0.2479598309495128  0.2588669386047153 0.4173196613385269 0.8711097567802347  0.349931687668115 0.4640670731596268 0.8137503091088829  0.2521091443082024 0.5198490772623717 0.8162094806026494  0.3381706165708041 0.3470207631890471 0.8747669541105296  0.4127313919422814 0.6915412096022421 0.5928098797483512  0.505094034203222 0.6002477622197614 0.6201472732847281  0.5053541985510116 0.6749299798537994 0.5376677936248502  0.5711974176563547 0.6081084457949028 0.5513053856218164  0.2265606352222516 0.3190644824037021 0.9202543858282597  0.1657801920411619 0.4763492767397394 0.8634861287110075  0.1656568208377873 0.3895779149708851 0.9059728836322062  0.501344556404584 0.2277556352228774 0.8347340932223356  0.4415367071350051 0.3068779784495727 0.8431318061816198  0.4059460944519277 0.2465220798785426 0.8800196773547647  0.6196876017566089 0.7450935593761555 0.2466229186537899  0.627698728320387 0.714123017011242 0.3098751733194038  0.6711018023358704 0.69515091935471 0.2576578549585624  0.5155953815884997 0.3094099022200982 0.7990162169147497  0.899989132227882 0.4289906012996104 0.07737328911389559  0.9382293875188548 0.3361973257557999 0.08183504475860598  0.2363183186651487 0.9697312279355392 0.06144101097726593  0.2993323950146074 0.9481462475789452 0.106858834434898  0.3101615066201264 0.2414838162804179 0.9195028038487859  0.4482922838801319 0.1771577048152243 0.8761559084079369  0.5266326972169642 0.1057746683003005 0.8434866458741044  0.4200451415729211 0.09020206018716082 0.9030092288448531  0.7623891105001969 0.5843698709159578 0.2779832695620105  0.7799115838824263 0.596929282445646 0.1881843592994147  0.7264879983305693 0.6504346235700518 0.2216979673856474  0.8178732076005444 0.5297083005156807 0.2247054353013872  0.08303734348179403 0.1922053315992417 0.9778353184930026  0.09408269694107538 0.07627092328721888 0.9926385003601306  0.1760515877647063 0.1196852712822077 0.9770779264130525  0.5576143975194612 0.3637809431371279 0.7461431558952143  0.4455986119305068 0.3912097319557027 0.8052309126385754  0.8060332204752099 0.4925189261569118 0.3282309474556054  0.7346451337886817 0.5624574787189985 0.379391765901261  0.642508165502269 0.2904084282097414 0.7091164940174894  0.7030254185009037 0.306273768786429 0.6418345888895255  0.6340141384684502 0.3769833468372913 0.6752108029567235  0.365152486570974 0.1655128603952953 0.9161163433728284  0.5962792236506059 0.542109883053058 0.5920877993497508  0.5485896415631504 0.5085733599282969 0.6636283167111371  0.5920678220815722 0.6464708649476155 0.4811768020483384  0.1878625042731283 0.2239323962641036 0.9563273296270713  0.1024217313722561 0.3092935774102874 0.9454349644028699  0.2334505071908325 0.06487815783086033 0.9702018786463037  0.4887206245964966 0.8674866792832123 0.09283863613924619  0.5742874233407752 0.8143734795796027 0.08360497084518105  0.9317006522490203 0.08389294215323394 0.3534060962343804  0.951181716421189 0.1590863374964037 0.2644709427669156  0.5455072387620422 0.7115493400103802 0.4428536882413925  0.9076276342048921 0.3867895805147213 0.1631131448807132  0.8905082493452895 0.127913990281725 0.4366154703376809  0.9096700297655037 0.1954608695184058 0.3664634844476816  0.4909557921631998 0.4638599224188366 0.7374255098075979  0.4820557633059458 0.5398846258057163 0.6900339353119844  0.4181956098394346 0.5173376920524271 0.7466419116905315  0.7346402167242096 0.09513558808181954 0.67175365414096  0.8078263850243458 0.09713596463829366 0.5813614504181416  0.2601336813274003 0.1475738587985683 0.954228706358363  0.3264256065230105 0.07648882390671821 0.9421230191559125  0.4590556119879899 0.7423895417623142 0.4879812633537003  0.6126112913498895 0.686574629053208 0.3915644065170771  0.6684671903139626 0.6091898762120843 0.4266606499250449  0.6977699223891808 0.542245960309553 0.4680667195357594  0.7549550374165268 0.4843931863016896 0.4420476586793638  0.07712060794257616 0.6883652307079324 0.7212528828247291  0.1027005936763692 0.7518617879958691 0.6512729380299598  0.9625479306552708 0.2091983633587219 0.1724457188778192  0.9825939555666527 0.1641265719497667 0.08701486576382911  0.964839163020035 0.2492141217550538 0.08353269432177644  0.97740960683
[...]
<PointData  Vectors="Solid displacement [m]"> 
<DataArray  type="Float64"  Name="Solid displacement [m]"  NumberOfComponents="3" format="ascii">0.0000000000000000e+00 0.0000000000000000e+00 0.0000000000000000e+00  -1.6655596733615843e-01 0.0000000000000000e+00 0.0000000000000000e+00  0.0000000000000000e+00 -1.6655596042667478e-01 0.0000000000000000e+00  0.0000000000000000e+00 0.0000000000000000e+00 -1.6655599205831159e-01  -1.6643196936724676e-02 0.0000000000000000e+00 0.0000000000000000e+00  -3.3287469004903203e-02 0.0000000000000000e+00 0.0000000000000000e+00  -4.9933561165915803e-02 0.0000000000000000e+00 0.0000000000000000e+00  -6.6582331795537436e-02 0.0000000000000000e+00 0.0000000000000000e+00  -8.3234527396041674e-02 0.0000000000000000e+00 0.0000000000000000e+00  -9.9890563980276070e-02 0.0000000000000000e+00 0.0000000000000000e+00  -1.1655076523288049e-01 0.0000000000000000e+00 0.0000000000000000e+00  -1.3321518740332938e-01 0.0000000000000000e+00 0.0000000000000000e+00  -1.4988369732173401e-01 0.0000000000000000e+00 0.0000000000000000e+00  0.0000000000000000e+00 -1.6643208984239405e-02 0.0000000000000000e+00  0.0000000000000000e+00 -3.3287403808668889e-02 0.0000000000000000e+00  0.0000000000000000e+00 -4.9933487826093442e-02 0.0000000000000000e+00  0.0000000000000000e+00 -6.6582315163301778e-02 0.0000000000000000e+00  0.0000000000000000e+00 -8.3234506806913161e-02 0.0000000000000000e+00  0.0000000000000000e+00 -9.9890552492786694e-02 0.0000000000000000e+00  0.0000000000000000e+00 -1.1655075012636949e-01 0.0000000000000000e+00  0.0000000000000000e+00 -1.3321519775572183e-01 0.0000000000000000e+00  0.0000000000000000e+00 -1.4988373448172596e-01 0.0000000000000000e+00  0.0000000000000000e+00 0.0000000000000000e+00 -1.6643202118908535e-02  0.0000000000000000e+00 0.0000000000000000e+00 -3.3287449515663717e-02  0.0000000000000000e+00 0.0000000000000000e+00 -4.9933519088539803e-02  0.0000000000000000e+00 0.0000000000000000e+00 -6.6582302380987168e-02  0.0000000000000000e+00 0.0000000000000000e+00 -8.3234508729720130e-02  0.0000000000000000e+00 0.0000000000000000e+00 -9.9890549232309667e-02  0.0000000000000000e+00 0.0000000000000000e+00 -1.1655072864103612e-01  0.0000000000000000e+00 0.0000000000000000e+00 -1.3321517413613196e-01  0.0000000000000000e+00 0.0000000000000000e+00 -1.4988373170974245e-01  -1.6575396153317390e-01 -1.6325363071869530e-02 0.0000000000000000e+00  -1.6335564376013445e-01 -3.2493472489978067e-02 0.0000000000000000e+00  -1.5938411136852720e-01 -4.8348664123386592e-02 0.0000000000000000e+00  -1.5387762345602679e-01 -6.3738212076551989e-02 0.0000000000000000e+00  -1.4688923078133714e-01 -7.8513921283007951e-02 0.0000000000000000e+00  -1.3848623731952578e-01 -9.2533515810256026e-02 0.0000000000000000e+00  -1.2874946576689830e-01 -1.0566203247956882e-01 0.0000000000000000e+00  -1.1777283209228287e-01 -1.1777289245267498e-01 0.0000000000000000e+00  -1.0566192631103866e-01 -1.2874954650043655e-01 0.0000000000000000e+00  -9.2533465698156389e-02 -1.3848624988447894e-01 0.0000000000000000e+00  -7.8513958950062746e-02 -1.4688920515859466e-01 0.0000000000000000e+00  -6.3738147096201334e-02 -1.5387763281336911e-01 0.0000000000000000e+00  -4.8348651686896157e-02 -1.5938405999382307e-01 0.0000000000000000e+00  -3.2493457398755275e-02 -1.6335561758662448e-01 0.0000000000000000e+00  -1.6325380082215315e-02 -1.6575396251006128e-01 0.0000000000000000e+00  -1.6575397151271909e-01 0.0000000000000000e+00 -1.6325358965611405e-02  -1.6335566082895242e-01 0.0000000000000000e+00 -3.2493409720440777e-02  -1.5938411656332591e-01 0.0000000000000000e+00 -4.8348678149028462e-02  -1.5387770117045008e-01 0.0000000000000000e+00 -6.3738138237793437e-02  -1.4688927721882514e-01 0.0000000000000000e+00 -7.8513995739438694e-02  -1.3848620547450399e-01 0.0000000000000000e+00 -9.2533635655529883e-02  -1.2874948245990558e-01 0.0000000000000000e+00 -1.0566199400197838e-01  -1.1777291053009116e-01 0.0000000000000000e+00 -1.1777281427338195e-01  -1.0566192408926733e-01 0.0000000000000000e+00 -1.2874959451521745e-01  -9.2533490102866781e-02 0.0000000000000000e+00 -1.3848622491651882e-01  -7.8513979876678880e-02 0.0000000000000000e+00 -1.4688921294071305e-01  -6.3738267236658777e-02 0.0000000000000000e+00 -1.5387766250612361e-01  -4.8348656143280530e-02 0.0000000000000000e+00 -1.5938417012815595e-01  -3.2493347949419542e-02 0.0000000000000000e+00 -1.6335568045798318e-01  -1.6325360807652053e-02 0.0000000000000000e+00 -1.6575400167663043e-01  0.0000000000000000e+00 -1.6575393411929118e-01 -1.6325473862786221e-02  0.0000000000000000e+00 -1.6335558516086776e-01 -3.2493480976818569e-02  0.0000000000000000e+00 -1.5938401592219886e-01 -4.8348740791399149e-02  0.0000000000000000e+00 -1.5387760512547499e-01 -6.3738166039280342e-02  0.0000000000000000e+00 -1.4688919064667844e-01 -7.8513922598297425e-02  0.0000000000000000e+00 -1.3848625850657495e-01 -9.2533408614504278e-02  0.0000000000000000e+00 -1.2874946045520624e-01 -1.0566199304026162e-01  0.0000000000000000e+00 -1.1777287941127679e-01 -1.1777276920077484e-01  0.0000000000000000e+00 -1.0566198113791442e-01 -1.2874945027818452e-01  0.0000000000000000e+00 -9.2533485388937187e-02 -1.3848621190785879e-01  0.0000000000000000e+00 -7.8513930393229403e-02 -1.4688921247619582e-01  0.0000000000000000e+00 -6.3738153464803868e-02 -1.5387763803628474e-01  0.0000000000000000e+00 -4.8348651831773670e-02 -1.5938409470604298e-01  0.0000000000000000e+00 -3.2493522977988978e-02 -1.6335564330096555e-01  0.0000000000000000e+00 -1.6325437766874316e-02 -1.6575398084975015e-01  -1.5380540086517356e-02 0.0000000000000000e+00 -6.0892477595218999e-02  -1.3177815495169434e-02 0.0000000000000000e+00 -7.4395464995643756e-02  -2.5582264833647055e-02 0.0000000000000000e+00 -7.1603503968787799e-02  -4.2532445841855275e-02 0.0000000000000000e+00 -1.5905337759481990e-02  -3.1034858277836259e-02 0.0000000000000000e+00 -3.3870802623875200e-02  -5.0210274170487616e-02 0.0000000000000000e+00 -3.2275739959419285e-02  -3.1321895348491863e-02 0.0000000000000000e+00 -5.4972744253183894e-02  -1.3991097674068283e-02 0.0000000000000000e+00 -1.0717559408346612e-01  -1.5213149435736364e-02 0.0000000000000000e+00 -8.8632448596218494e-02  -3.2152877883281812e-02 0.0000000000000000e+00 -1.3118758398381569e-01  -3.6059369791862729e-02 0.0000000000000000e+00 -1.5002549041518431e-01  -4.8634379450908455e-02 0.0000000000000000e+00 -1.4131482527883291e-01  -1.3383863983907665e-01 0.0000000000000000e+00 -1.3642092296757637e-02  -2.1673397112003868e-02 0.0000000000000000e+00 -1.4769301666918114e-01  -1.3971704393759839e-02 0.0000000000000000e+00 -1.3743528325277585e-01  -1.5194490880795776e-02 0.0000000000000000e+00 -1.2402936716152453e-01  -1.4811699764504513e-01 0.0000000000000000e+00 -4.5012434194348951e-02  -1.4310243283148236e-01 0.0000000000000000e+00 -3.0008805355491712e-02  -1.3363240946832186e-01 0.0000000000000000e+00 -4.1221153058827675e-02  -5.7881905331883886e-02 0.0000000000000000e+00 -6.8676989661552335e-02  -4.9891921876613940e-02 0.0000000000000000e+00 -5.1550505393989331e-02  -4.1456594242182246e-02 0.0000000000000000e+00 -6.8672008086168634e-02  -7.5813447351522886e-02 0.0000000000000000e+00 -4.1930161158980676e-02  -6.6114403322366358e-02 0.0000000000000000e+00 -5.4238923384356867e-02  -8.1307905035049047e-02 0.0000000000000000e+00 -5.4389511353184240e-02  -1.4924226041077194e-02 0.0000000000000000e+00 -4.4968341041460046e-02  -1.3943199896341563e-02 0.0000000000000000e+00 -2.7392096356734945e-02  -6.4442070621498176e-02 0.0000000000000000e+00 -1.3385102220684200e-01  -2.9836095063263110e-02 0.0000000000000000e+00 -1.1565174995941033e-01  -2.7109893360148522e-02 0.0000000000000000e+00 -9.9092913597645493e-02  -4.0528239361624370e-02 0.0000000000000000e+00 -1.0167374179526814e-01  -5.3354851002092293e-02 0.0000000000000000e+00 -1.0325213710293138e-01  -4.7393208400631173e-02 0.0000000000000000e+00 -1.1921073475379590e-01  -6.3813481718216533e-02 0.0000000000000000e+00 -1.1478495978758700e-01  -2.5994209277008410e-02 0.0000000000000000e+00 -1.5857613998690449e-02  -1.3526638000314414e-01 0.0000000000000000e+00 -5.4514120129495566e-02  -3.3732544050060438e-02 0.0000000000000000e+00 -8.5695699260006378e-02  -5.0797938223473012e-02 0.0000000000000000e+00 -8.6514748989607579e-02  -9.8019693176812250e-02 0.0000000000000000e+00 -9.7909079533929105e-02  -9.3715780319116856e-02 0.0000000000000000e+00 -8.0607897046517052e-02  -7.9822117206546667e-02 0.0000000000000000e+00 -9.0236484585019289e-02  -6.6834878375971699e-02 0.0000000000000000e+00 -2.6556077375336305e-02  -7.5752100465321076e-02 0.0000000000000000e+00 -1.3983349734872957e-02  -5.9496835785993248e-02 0.0000000000000000e+00 -1.4172647921860017e-02  -7.9558382982945069e-02 0.0000000000000000e+00 -1.0690914864708123e-01  -9.8027452343884366e-02 0.0000000000000000e+00 -1.1870976369263547e-01  -1.1711602375062793e-01 0.0000000000000000e+00 -9.2378892394171658e-02  -6.1758401903043020e-02 0.0000000000000000e+00 -3.9700866722494961e-02  -1.0562348821205277e-01 0.0000000000000000e+00 -3.2638240163136441e-02  -1.1998644198672748e-01 0.0000000000000000e+00 -4.6823602310719477e-02  -1.2420876043277450e-01 0.0000000000000000e+00 -3.0541703070886550e-02  -1.1317031116928176e-01 0.0000000000000000e+00 -1.7111249712555721e-02  -9.3517385982903697e-02 0.0000000000000000e+00 -1.5595873780012795e-02  -8.4899839527481674e-02 0.0000000000000000e+00 -2.8902442263128166e-02  -1.2782091053290909e-01 0.0000000000000000e+00 -7.9881432881563810e-02  -1.0903136888671970e-01 0.0000000000000000e+00 -7.4327821335755329e-02  -7.6504962677023031e-02 0.0000000000000000e+00 -7.0811725467769038e-02  -6.4482991778424398e-02 0.0000000000000000e+00 -8.1572986394179772e-02  -6.4540056392190973e-02 0.0000000000000000e+00 -9.7224173263048691e-02  -1.2908138061126820e-02 0.0000000000000000e+00 -1.2186978840303640e-02  -1.1096052814496156e-01 0.0000000000000000e+00 -1.0665719904338146e-01  -1.0459741173980040e-01 0.0000000000000000e+00 -8.6138150181775661e-02  -9.1034638222955808e-02 0.0000000000000000e+00 -4.6201843058201741e-02  -1.0627589764147499e-01 0.0000000000000000e+00 -5.4210938633920146e-02  -1.2005568128726241e-01 0.0000000000000000e+00 -6.2617048423752722e-02  -7.9566573288407591e-02 0.0000000000000000e+00 -1.2740994908771855e-01  -1.3573024439880763e-01 0.0000000000000000e+00 -6.8006371747493174e-02  -9.2684894701877865e-02 0.0000000000000000e+00 -6.4143538802362995e-02  -1.3835947533614092e-02 0.0000000000000000e+00 -1.5765910773679823e-01  -1.5429362173803246e-01 0.0000000000000000e+00 -1.5316472124925644e-02  -3.9909653068131073e-02 0.0000000000000000e+00 -4.1889067096987004e-02  -1.3561646433362287e-02 -7.0885270696658051e-02 -1.5010742775236319e-01  -1.5300963978826656e-02 -8.4999144532275250e-02 -1.4241454962223848e-01  -1.6086798193739421e-01 -1.2520435471310121e-02 -4.1299219250647917e-02  -4.3115867515386985e-02 -6.9507056902362807e-02 -1.4508839184062680e-01  -5.8283101202887787e-02 -7.7293042302275003e-02 -1.3553490365106610e-01  -4.1990324979571295e-02 -8.6583876630052098e-02 -1.3594447423835007e-01  -5.6324288939685857e-02 -5.7798424801090514e-02 -1.4569752787614307e-01  -6.8742820890317247e-02 -1.1518020162414459e-01 -9.8735964076547195e-02  -8.4126275346703375e-02 -9.9974855944310340e-02 -1.0328915922268402e-01  -8.4169621531831801e-02 -1.1241355962075589e-01 -8.9551778941693930e-02  -9.5136206981305108e-02 -1.0128407375849603e-01 -9.1823206862033407e-02  -3.7735035236576897e-02 -5.3142091321487291e-02 -1.5327377198511427e-01  -2.7611760520162586e-02 -7.9338769853224994e-02 -1.4381870103908037e-01  -2.7591170794119029e-02 -6.4886489267994271e-02 -1.5089513658796591e-01  -8.3501897856229343e-02 -3.7934081210431563e-02 -1.3902991105006460e-01  -7.3540452803313880e-02 -5.1112448953966522e-02 -1.4042857378684706e-01  -6.7612658664231093e-02 -4.1059829225278031e-02 -1.4657248575927073e-01  -1.0321261702681662e-01 -1.2409977869050946e-01 -4.1076529644827782e-02  -1.0454690971781931e-01 -1.1894142555092301e-01 -5.1611633557237510e-02  -1.1177598265992977e-01 -1.1578150717606937e-01 -4.2914467675620259e-02  -8.5875402340116355e-02 -5.1534132974698638e-02 -1.3308087792070372e-01  -1.4989852241015525e-01 -7.1450933765109345e-02 -1.2887023062094440e-02  -1.5626766908409426e-01 -5.5995690158949819e-02 -1.3630140905528070e-02  -3.9360246066181583e-02 -1.6151448047652922e-01 -1.0233416090505045e-02  -4.9855569975488415e-02 -1.5791935200286344e-01 -1.7798075420270013e-02  -5.1659185853317156e-02 -4.0220671815201947e-02 -1.5314860989536089e-01  -7.4665760910512996e-02 -2.9506702640420077e-02 -1.4592899327149408e-01  -8.7713782667943357e-02 -1.7617391672955361e-02 -1.4048774090227714e-01  -6.9961078296810975e-02 -1.5023703858841933e-02 -1.5040158257610092e-01  -1.2698039787087012e-01 -9.7330226187311158e-02 -4.6299861289700324e-02  -1.2989889548388783e-01 -9.9422125624327409e-02 -3.1343293792937356e-02  -1.2100087321295423e-01 -1.0833374757606583e-01 -3.6925150882251873e-02  -1.3622161995298374e-01 -8.8226028936537762e-02 -3.7426099327094377e-02  -1.3830397664327355e-02 -3.2013018452201503e-02 -1.6286427770977926e-01  -1.5670046986820209e-02 -1.2703446482271065e-02 -1.6532988801872198e-01  -2.9322384883167830e-02 -1.9934374532768341e-02 -1.6273816632283619e-01  -9.2873908884432865e-02 -6.0589914326049855e-02 -1.2427456171360916e-01  -7.4216992748350960e-02 -6.5158301822270337e-02 -1.3411595696932782e-01  -1.3424953584813515e-01 -8.2031972706704134e-02 -5.4668851699654047e-02  -1.2235947768429120e-01 -9.3680595548838452e-02 -6.3189926851043757e-02  -1.0701351785654932e-01 -4.8369288220180211e-02 -1.1810755935053303e-01  -1.1709301388868407e-01 -5.1011767315110562e-02 -1.0690135932038666e-01  -1.0559878670680138e-01 -6.2788823603772512e-02 -1.1246035566930374e-01  -6.0818276099174222e-02 -2.7567226161186141e-02 -1.5258463470004791e-01  -9.9313801140690092e-02 -9.0291610984809534e-02 -9.8615717762238111e-02  -9.1370808671452391e-02 -8.4705957879094074e-02 -1.1053121422052185e-01  -9.8612348947011083e-02 -1.0767355802479719e-01 -8.0142863141738199e-02  -3.1289609241841314e-02 -3.7297371600135104e-02 -1.5928195824320393e-01  -1.7058982498693781e-02 -5.1514692016647545e-02 -1.5746777925967859e-01  -3.8882553789518173e-02 -1.0805895352994954e-02 -1.6159296789877894e-01  -8.1399292305843016e-02 -1.4448507112822975e-01 -1.5462856928493619e-02  -9.5650967430351494e-02 -1.3563876929180513e-01 -1.3924906208521198e-02  -1.5518030399602753e-01 -1.3972956228792563e-02 -5.8861827046262152e-02  -1.5842493038068861e-01 -2.6496811814157473e-02 -4.4049259933569673e-02  -9.0857394289628260e-02 -1.1851275306502924e-01 -7.3759936859954578e-02  -1.5117075135392674e-01 -6.4422120561816676e-02 -2.7167476647997211e-02  -1.4831949545581488e-01 -2.1304915139115234e-02 -7.2720864337450827e-02  -1.5151096857004759e-01 -3.2555179802340795e-02 -6.1036600009424777e-02  -8.1771542946346670e-02 -7.7258580978531430e-02 -1.2282259194080405e-01  -8.0289152307686601e-02 -8.9921019815046549e-02 -1.1492919535656677e-01  -6.9652859997676800e-02 -8.6165672063229989e-02 -1.2435759105906638e-01  -1.2235871482978394e-01 -1.5845413816539092e-02 -1.1188454915642806e-01  -1.3454827393245472e-01 -1.6178582599494611e-02 -9.6829280106017115e-02  -4.3326826380305557e-02 -2.4579440945201161e-02 -1.5893245640364886e-01  -5.4368154441007517e-02 -1.2739745913748511e-02 -1.5691623762174481e-01  -7.6458324841434305e-02 -1.2364933971662460e-01 -8.1276217457035213e-02  -1.0203401699633577e-01 -1.1435304658244920e-01 -6.5217404846426075e-02  -1.1133712942608368e-01 -1.0146420755052209e-01 -7.1062829224290497e-02  -1.1621771726738393e-01 -9.0314241415695579e-02 -7.7959298271627966e-02  -1.2574220109335021e-01 -8.0678545303799892e-02 -7.3625654904747470e-02  -1.2844892384786630e-02 -1.1465134258190389e-01 -1.2012892847771413e-01  -1.7105431690535577e-02 -1.2522705453975325e-01 -1.0847332546678029e-01  -1.6031806438369042e-01 -3.4843234421137875e-02 -2.8721898782909400e-02  -1.6365688236730369e-01 -2.7336254971960738e-02 -1.4492867372276310e-02  -1.6069969989281133e-01 -4.1508114861384025e-02 -1.3912895714814784e-02  -1.6279339131780277e-01 -1.8852403944646920e-02 -2.9728536714232749e-02  -1.2720708212776263e-01 -5.2053143484763226e-02 -9.4072860401101965e-02  -1.1645084108621834e-01 -6.5249141360779125e-02 -9.9612353406365359e-02  -1.5509365265486755e-01 -4.2408463142779046e-02 -4.3455236316474015e-02  -1.1639378979213518e-02 -1.3471394874682077e-01 -9.7249982493596981e-02  -2.8900141371376503e-02 -1.3430784517645863e-01 -9.4165018773235146e-02  -5.6534048332885077e-02 -9.3605055334537599e-02 -1.2562978309959841e-01  -1.1388961184056980e-01 -8.0701304847921387e-02 -9.0869828346959197e-02  -1.0359804026850324e-01 -7.6526207659878526e-02 -1.0560329268416276e-01  -1.8926790922320393e-02 -1.4329159517624929e-01 -8.2765703524125558e-02  -3.7129850052002346e-02 -1.4162688078276231e-01 -7.9398126581732176e-02  -2.8055511792762129e-02 -1.4965779900074314e-01 -6.7500308246370613e-02  -1.0623992689866227e-01 -9.5669810841073316e-02 -8.5447273263097076e-02  -9.5065789238782047e-02 -7.3157608303648106e-02 -1.1554795919765147e-01  -1.5646596099207752e-01 -4.9558568036621127e-02 -2.8341300921647966e-02  -1.9986057382117471e-02 -1.5677049028487200e-01 -5.2577840212045694e-02  -3.7218038383627382e-02 -1.5388281554582517e-01 -5.1727694233249452e-02  -2.9878424873905698e-02 -1.5945451614252901e-01 -3.7714634511585320e-02  -4.9125709670747149e-02 -1.5506352491776154e-01 -3.5816486462419528e-02  -4.4048748026397667e-02 -1.3258871932949529e-01 -9.0668663984216274e-02  -3.6282048920099258e-02 -1.2470528698870055e-01 -1.0427400699212984e-01  -1.4394580228399403e-01 -7.9237376412082838e-02 -2.7238156659638205e-02  -1.4377921083738390e-01 -7.3752248642080451e-02 -4.0361133744488319e-02  -1.4100251726093233e-01 -2.5230184676837471e-02 -8.4986063808539819e-02  -1.4389988340112517e-01 -3.5569863722450683e-02 -7.5950636218864290e-02  -1.3466454981866871e-01 -3.5877152051528770e-02 -9.1209516564052656e-02  -1.3755404003295382e-01 -5.2029951657365410e-02 -7.8183464511722214e-02  -1.3602088910447080e-01 -9.3500729993688012e-02 -2.2289416855232169e-02  -1.4214194243470896e-01 -8.5923715274973347e-02 -1.2396243210154098e-02  -1.3496391333477684e-01 -9.7060379238219557e-02 -1.0243036763496440e-02  -6.9455765991341581e-02 -9.9700908124108270e-02 -1.1391431012136448e-01  -1.5073889761229031e-01 -5.7613119644451490e-02 -4.1223693340488275e-02  -1.2697074226260466e-01 -1.0588987192063397e-01 -2.0165708939031711e-02  -5.9780025667327735e-02 -1.5505762628105138e-01 -1.1151590990199316e-02  -1.4257246451976660e-01 -6.8257911840451407e-02 -5.2486507796908173e-02  -4.3256992334410591e-02 -1.0108966063557687e-01 -1.2510223685463800e-01  -2.7520865398951627e-02 -9.4661998116703297e-02 -1.3424821082441649e-01  -3.1970190366195986e-02 -1.0620568415070161e-01 -1.2425430859554297e-01  -4.3267635686294090e-02 -1.1490353212074463e-01 -1.1254309532972274e-01  -2.7140088851902701e-02 -1.1566032334748205e-01 -1.1673463375721206e-01  -1.1828197315044137e-01 -3.4357184294573469e-02 -1.1211526469261116e-01  -1.1286266902270287e-01 -2.2810964603428706e-02 -1.2034353606451537e-01  -1.4861707998186044e-01 -5.1167716775393828e-02 -5.5097363594868075e-02  -1.0228841135824446e-01 -1.6280128727813273e-02 -1.3043363129958141e-01  -1.0588575686430518e-01 -3.2997131650434948e-02 -1.2425891626889242e-01  -1.1113356119433161e-01 -1.0260174770467399e-02 -1.2363237076560715e-01  -1.4529813542852502e-01 -4.5381756955313150e-02 -6.7600562726695512e-02  -1.4254241928243458e-01 -5.8314786669283747e-02 -6.3418745661823456e-02  -8.7341268796703272e-02 -1.3915055944136301e-01 -2.7377041144345582e-02  -9.3718110342788846e-02 -1.3203737179401306e-01 -3.9037467532106053e-02  -9.9860127478501634e-02 -1.3059641455385945e-01 -2.6709775870431576e-02  -8.2600503431232569e-02 -1.3757419305060434e-01 -4.4624734986004423e-02  -8.1527546186834582e-02 -1.280656