<?xml version="1.0"?>
<VTKFile type="UnstructuredGrid"  version="0.1"  >
<UnstructuredGrid>
<Piece  NumberOfPoints="597" NumberOfCells="2124">
<Points>
<DataArray  type="Float64"  NumberOfComponents="3"  format="ascii">0 0 0  1 0 0  0 1 0  0 0 1  0.09999999999981467 0 0  0.1999999999995579 0 0  0.2999999999992664 0 0  0.3999999999989749 0 0  0.4999999999986943 0 0  0.5999999999989468 0 0  0.69999999999921 0 0  0.7999999999994734 0 0  0.8999999999997368 0 0  0 0.09999999999981467 0  0 0.1999999999995579 0  0 0.2999999999992664 0  0 0.3999999999989749 0  0 0.4999999999986943 0  0 0.5999999999989468 0  0 0.69999999999921 0  0 0.7999999999994734 0  0 0.8999999999997368 0  0 0 0.09999999999981467  0 0 0.1999999999995579  0 0 0.2999999999992664  0 0 0.3999999999989749  0 0 0.4999999999986943  0 0 0.5999999999989468  0 0 0.69999999999921  0 0 0.7999999999994734  0 0 0.8999999999997368  0.9951847266502585 0.09801714055230534 0  0.9807852803038259 0.1950903225158687 0  0.9569403355024331 0.2902846780119318 0  0.9238795320817892 0.3826834334019886 0  0.8819212636904032 0.4713967380569389 0  0.8314696113679687 0.5555702344182949 0  0.7730104520841969 0.6343932857215511 0  0.7071067795733449 0.7071067827997501 0  0.634393282646958 0.7730104546074502 0  0.5555702316245595 0.8314696132346829 0  0.471396735522105 0.8819212650453002 0  0.3826834312318057 0.9238795329807084 0  0.2902846763682919 0.9569403360010258 0  0.1950903214145686 0.980785280522888 0  0.0980171400302339 0.995184726701678 0  0.9951847266502585 0 0.09801714055230534  0.9807852803038259 0 0.1950903225158687  0.9569403355024331 0 0.2902846780119318  0.9238795320817892 0 0.3826834334019886  0.8819212636904032 0 0.4713967380569389  0.8314696113679687 0 0.5555702344182949  0.7730104520841969 0 0.6343932857215511  0.7071067795733449 0 0.7071067827997501  0.634393282646958 0 0.7730104546074502  0.5555702316245595 0 0.8314696132346829  0.471396735522105 0 0.8819212650453002  0.3826834312318057 0 0.9238795329807084  0.2902846763682919 0 0.9569403360010258  0.1950903214145686 0 0.980785280522888  0.0980171400302339 0 0.995184726701678  0 0.9951847266502585 0.09801714055230534  0 0.9807852803038259 0.1950903225158687  0 0.9569403355024331 0.2902846780119318  0 0.9238795320817892 0.3826834334019886  0 0.8819212636904032 0.4713967380569389  0 0.8314696113679687 0.5555702344182949  0 0.7730104520841969 0.6343932857215511  0 0.7071067795733449 0.7071067827997501  0 0.634393282646958 0.7730104546074502  0 0.5555702316245595 0.8314696132346829  0 0.471396735522105 0.8819212650453002  0 0.3826834312318057 0.9238795329807084  0 0.2902846763682919 0.9569403360010258  0 0.1950903214145686 0.980785280522888  0 0.0980171400302339 0.995184726701678  0.09240154966779951 0 0.3658235692199516  0.07916357488785433 0 0.4469199030523527  0.1536813483092524 0 0.4301465381022301  0.2555379022644893 0 0.09556049568595243  0.1864593291765566 0 0.2034979771761179  0.301651764011142 0 0.1939053326038485  0.1881720785854029 0 0.3302588474155368  0.08403438330774521 0 0.6437268466185475  0.09138388892861184 0 0.5324072873297468  0.1930859140709486 0 0.7878139522981464  0.2165176696171426 0 0.900824597607195  0.292033522918994 0 0.8485491372975176  0.8037370491763215 0 0.0819245024222376  0.13014171782822 0 0.8868491929551598  0.08390174260734276 0 0.8253161934654943  0.0912526277304111 0 0.7448765232291942  0.8893622411880446 0 0.270275215225845  0.8593018882538136 0 0.1801969264281539  0.8024703672696746 0 0.2475353432181931  0.3476914857890963 0 0.4125368919261175  0.2997235777995208 0 0.3096876237048341  0.2490386282757974 0 0.412527605219857  0.4554126154120848 0 0.2518749964366375  0.39715257119151 0 0.3258159451822259  0.4883877361055989 0 0.3266984434363212  0.08966539318254355 0 0.2701713986717769  0.08377502767602918 0 0.164580120521203  0.3869558528229924 0 0.8037364723405749  0.1791913905804899 0 0.6945879747883159  0.1628348997531483 0 0.5951991143072877  0.2434219731662663 0 0.6106761106298939  0.3204481765543245 0 0.6201302437713152  0.2846206283417919 0 0.7159219267704837  0.3832252637688779 0 0.6893291551637116  0.1561812521325313 0 0.09527745928338882  0.8122499659106144 0 0.3273472587872134  0.2026260329838435 0 0.5147603927306801  0.3051207491780334 0 0.5196560474248884  0.5886190882535927 0 0.5879547877726188  0.5628286668856228 0 0.4841066442899339  0.4793970684942127 0 0.5419440173923771  0.4015076433379883 0 0.1595345792024606  0.4550663848726773 0 0.08400234057127416  0.3574412370957718 0 0.08514557536940835  0.4777735346904641 0 0.6420237002140541  0.5886050303809575 0 0.712791733722679  0.7032448955145116 0 0.5547060123784804  0.3710082806848816 0 0.2384994559961529  0.6343947712920404 0 0.1960314230465952  0.7205780420889929 0 0.2811987241304542  0.745939430962431 0 0.1834190974026157  0.6797060130425652 0 0.1027709852058109  0.5617353506566283 0 0.09368054426051139  0.5099863318045709 0 0.1736146479983669  0.767516113391133 0 0.4796577434100839  0.6547738563668709 0 0.4463662193850245  0.4595209371514753 0 0.4253249285837939  0.3873123962753185 0 0.4899626124422253  0.3876250349852705 0 0.5839247669697213  0.07755778095112512 0 0.07322480571131515  0.6662618639536104 0 0.6404224526940073  0.6281317226641706 0 0.5172795154653362  0.5467991787548994 0 0.2775110285514451  0.6382784164401777 0 0.32558335190295  0.7209625386664502 0 0.3760300013763025  0.4777689774710401 0 0.7650512433185178  0.8150026845526732 0 0.4083495007681245  0.5566757769165783 0 0.3852531587967231  0.08307535298787436 0 0.9466352209487393  0.9264479164039098 0 0.09196696687313166  0.2397696045481275 0 0.2516617606603849  0.08142379610690136 0.4255946222877561 0.9012432429190713  0.09186671735860186 0.5103340042487068 0.8550553843753256  0.9658493887414453 0.07517233868428744 0.2479598309495128  0.2588669386047153 0.4173196613385269 0.8711097567802347  0.349931687668115 0.4640670731596268 0.8137503091088829  0.2521091443082024 0.5198490772623717 0.8162094806026494  0.3381706165708041 0.3470207631890471 0.8747669541105296  0.4127313919422814 0.6915412096022421 0.5928098797483512  0.505094034203222 0.6002477622197614 0.6201472732847281  0.5053541985510116 0.6749299798537994 0.5376677936248502  0.5711974176563547 0.6081084457949028 0.5513053856218164  0.2265606352222516 0.3190644824037021 0.9202543858282597  0.1657801920411619 0.4763492767397394 0.8634861287110075  0.1656568208377873 0.3895779149708851 0.9059728836322062  0.501344556404584 0.2277556352228774 0.8347340932223356  0.4415367071350051 0.3068779784495727 0.8431318061816198  0.4059460944519277 0.2465220798785426 0.8800196773547647  0.6196876017566089 0.7450935593761555 0.2466229186537899  0.627698728320387 0.714123017011242 0.3098751733194038  0.6711018023358704 0.69515091935471 0.2576578549585624  0.5155953815884997 0.3094099022200982 0.7990162169147497  0.899989132227882 0.4289906012996104 0.07737328911389559  0.9382293875188548 0.3361973257557999 0.08183504475860598  0.2363183186651487 0.9697312279355392 0.06144101097726593  0.2993323950146074 0.9481462475789452 0.106858834434898  0.3101615066201264 0.2414838162804179 0.9195028038487859  0.4482922838801319 0.1771577048152243 0.8761559084079369  0.5266326972169642 0.1057746683003005 0.8434866458741044  0.4200451415729211 0.09020206018716082 0.9030092288448531  0.7623891105001969 0.5843698709159578 0.2779832695620105  0.7799115838824263 0.596929282445646 0.1881843592994147  0.7264879983305693 0.6504346235700518 0.2216979673856474  0.8178732076005444 0.5297083005156807 0.2247054353013872  0.08303734348179403 0.1922053315992417 0.9778353184930026  0.09408269694107538 0.07627092328721888 0.9926385003601306  0.1760515877647063 0.1196852712822077 0.9770779264130525  0.5576143975194612 0.3637809431371279 0.7461431558952143  0.4455986119305068 0.3912097319557027 0.8052309126385754  0.8060332204752099 0.4925189261569118 0.3282309474556054  0.7346451337886817 0.5624574787189985 0.379391765901261  0.642508165502269 0.2904084282097414 0.7091164940174894  0.7030254185009037 0.306273768786429 0.6418345888895255  0.6340141384684502 0.3769833468372913 0.6752108029567235  0.365152486570974 0.1655128603952953 0.9161163433728284  0.5962792236506059 0.542109883053058 0.5920877993497508  0.5485896415631504 0.5085733599282969 0.6636283167111371  0.5920678220815722 0.6464708649476155 0.4811768020483384  0.1878625042731283 0.2239323962641036 0.9563273296270713  0.1024217313722561 0.3092935774102874 0.9454349644028699  0.2334505071908325 0.06487815783086033 0.9702018786463037  0.4887206245964966 0.8674866792832123 0.09283863613924619  0.5742874233407752 0.8143734795796027 0.08360497084518105  0.9317006522490203 0.08389294215323394 0.3534060962343804  0.951181716421189 0.1590863374964037 0.2644709427669156  0.5455072387620422 0.7115493400103802 0.4428536882413925  0.9076276342048921 0.3867895805147213 0.1631131448807132  0.8905082493452895 0.127913990281725 0.4366154703376809  0.9096700297655037 0.1954608695184058 0.3664634844476816  0.4909557921631998 0.4638599224188366 0.7374255098075979  0.4820557633059458 0.5398846258057163 0.6900339353119844  0.4181956098394346 0.5173376920524271 0.7466419116905315  0.7346402167242096 0.09513558808181954 0.67175365414096  0.8078263850243458 0.09713596463829366 0.5813614504181416  0.2601336813274003 0.1475738587985683 0.954228706358363  0.3264256065230105 0.07648882390671821 0.9421230191559125  0.4590556119879899 0.7423895417623142 0.4879812633537003  0.6126112913498895 0.686574629053208 0.3915644065170771  0.6684671903139626 0.6091898762120843 0.4266606499250449  0.6977699223891808 0.542245960309553 0.4680667195357594  0.7549550374165268 0.4843931863016896 0.4420476586793638  0.07712060794257616 0.6883652307079324 0.7212528828247291  0.1027005936763692 0.7518617879958691 0.6512729380299598  0.9625479306552708 0.2091983633587219 0.1724457188778192  0.9825939555666527 0.1641265719497667 0.08701486576382911  0.964839163020035 0.2492141217550538 0.08353269432177644  0.97740960683
[...]
<PointData  Vectors="Solid displacement [m]"> 
<DataArray  type="Float64"  Name="Solid displacement [m]"  NumberOfComponents="3" format="ascii">0.0000000000000000e+00 0.0000000000000000e+00 0.0000000000000000e+00  -1.6653827815921551e-01 0.0000000000000000e+00 0.0000000000000000e+00  0.0000000000000000e+00 -1.6653827014564274e-01 0.0000000000000000e+00  0.0000000000000000e+00 0.0000000000000000e+00 -1.6653830683182635e-01  -1.6639446596040452e-02 0.0000000000000000e+00 0.0000000000000000e+00  -3.3280140123943744e-02 0.0000000000000000e+00 0.0000000000000000e+00  -4.9922944586038659e-02 0.0000000000000000e+00 0.0000000000000000e+00  -6.6568855522079654e-02 0.0000000000000000e+00 0.0000000000000000e+00  -8.3218738721519622e-02 0.0000000000000000e+00 0.0000000000000000e+00  -9.9873076673882510e-02 0.0000000000000000e+00 0.0000000000000000e+00  -1.1653224478694622e-01 0.0000000000000000e+00 0.0000000000000000e+00  -1.3319630829856216e-01 0.0000000000000000e+00 0.0000000000000000e+00  -1.4986511275898842e-01 0.0000000000000000e+00 0.0000000000000000e+00  0.0000000000000000e+00 -1.6639460568683984e-02 0.0000000000000000e+00  0.0000000000000000e+00 -3.3280064509688574e-02 0.0000000000000000e+00  0.0000000000000000e+00 -4.9922859526892717e-02 0.0000000000000000e+00  0.0000000000000000e+00 -6.6568836232099179e-02 0.0000000000000000e+00  0.0000000000000000e+00 -8.3218714842357697e-02 0.0000000000000000e+00  0.0000000000000000e+00 -9.9873063350757102e-02 0.0000000000000000e+00  0.0000000000000000e+00 -1.1653222726650070e-01 0.0000000000000000e+00  0.0000000000000000e+00 -1.3319632030522252e-01 0.0000000000000000e+00  0.0000000000000000e+00 -1.4986515585696389e-01 0.0000000000000000e+00  0.0000000000000000e+00 0.0000000000000000e+00 -1.6639452606311896e-02  0.0000000000000000e+00 0.0000000000000000e+00 -3.3280117520427734e-02  0.0000000000000000e+00 0.0000000000000000e+00 -4.9922895784919298e-02  0.0000000000000000e+00 0.0000000000000000e+00 -6.6568821407238077e-02  0.0000000000000000e+00 0.0000000000000000e+00 -8.3218717072414891e-02  0.0000000000000000e+00 0.0000000000000000e+00 -9.9873059569261638e-02  0.0000000000000000e+00 0.0000000000000000e+00 -1.1653220234790558e-01  0.0000000000000000e+00 0.0000000000000000e+00 -1.3319629291132268e-01  0.0000000000000000e+00 0.0000000000000000e+00 -1.4986515264200714e-01  -1.6573635860632019e-01 -1.6323632970387098e-02 0.0000000000000000e+00  -1.6333829489923557e-01 -3.2490023916510367e-02 0.0000000000000000e+00  -1.5936718198099983e-01 -4.8343532226378425e-02 0.0000000000000000e+00  -1.5386127667887911e-01 -6.3731443143883224e-02 0.0000000000000000e+00  -1.4687362737872328e-01 -7.8505579718769258e-02 0.0000000000000000e+00  -1.3847153120601477e-01 -9.2523684713556667e-02 0.0000000000000000e+00  -1.2873578580145148e-01 -1.0565081779197481e-01 0.0000000000000000e+00  -1.1776032050545575e-01 -1.1776039042519237e-01 0.0000000000000000e+00  -1.0565069474015645e-01 -1.2873587936858563e-01 0.0000000000000000e+00  -9.2523626668215703e-02 -1.3847154572906634e-01 0.0000000000000000e+00  -7.8505623472339844e-02 -1.4687359762551777e-01 0.0000000000000000e+00  -6.3731367837815245e-02 -1.5386128750754022e-01 0.0000000000000000e+00  -4.8343517846381537e-02 -1.5936712238361331e-01 0.0000000000000000e+00  -3.2490006443123186e-02 -1.6333826453750919e-01 0.0000000000000000e+00  -1.6323652712803810e-02 -1.6573635973794903e-01 0.0000000000000000e+00  -1.6573637018054455e-01 0.0000000000000000e+00 -1.6323628207971640e-02  -1.6333831469556045e-01 0.0000000000000000e+00 -3.2489951116730219e-02  -1.5936718800589711e-01 0.0000000000000000e+00 -4.8343548493248310e-02  -1.5386136681165777e-01 0.0000000000000000e+00 -6.3731357506079347e-02  -1.4687368123667244e-01 0.0000000000000000e+00 -7.8505666072953423e-02  -1.3847149427231398e-01 0.0000000000000000e+00 -9.2523823709483519e-02  -1.2873580516190242e-01 0.0000000000000000e+00 -1.0565077316586535e-01  -1.1776041147720397e-01 0.0000000000000000e+00 -1.1776029975325228e-01  -1.0565069216334298e-01 0.0000000000000000e+00 -1.2873593505587308e-01  -9.2523654972656702e-02 0.0000000000000000e+00 -1.3847151677134678e-01  -7.8505647742905874e-02 0.0000000000000000e+00 -1.4687360665116522e-01  -6.3731507176079671e-02 0.0000000000000000e+00 -1.5386132194502583e-01  -4.8343523014862555e-02 0.0000000000000000e+00 -1.5936725011682010e-01  -3.2489879504345627e-02 0.0000000000000000e+00 -1.6333833745536200e-01  -1.6323630358261877e-02 0.0000000000000000e+00 -1.6573640516310911e-01  0.0000000000000000e+00 -1.6573632681185102e-01 -1.6323761465118606e-02  0.0000000000000000e+00 -1.6333822693611838e-01 -3.2490033759509658e-02  0.0000000000000000e+00 -1.5936707128284974e-01 -4.8343621145548410e-02  0.0000000000000000e+00 -1.5386125541920198e-01 -6.3731389750104617e-02  0.0000000000000000e+00 -1.4687358083075236e-01 -7.8505581244244518e-02  0.0000000000000000e+00 -1.3847155577863762e-01 -9.2523560388490245e-02  0.0000000000000000e+00 -1.2873577964096827e-01 -1.0565077205047797e-01  0.0000000000000000e+00 -1.1776037538576577e-01 -1.1776024747828319e-01  0.0000000000000000e+00 -1.0565075832806706e-01 -1.2873576777051807e-01  0.0000000000000000e+00 -9.2523649505464489e-02 -1.3847150168397504e-01  0.0000000000000000e+00 -7.8505590352257057e-02 -1.4687360611242389e-01  0.0000000000000000e+00 -6.3731375224072628e-02 -1.5386129356503650e-01  0.0000000000000000e+00 -4.8343518014397638e-02 -1.5936716264264755e-01  0.0000000000000000e+00 -3.2490082501568436e-02 -1.6333829436084710e-01  0.0000000000000000e+00 -1.6323719615166536e-02 -1.6573638100820168e-01  -1.5377389222147176e-02 0.0000000000000000e+00 -6.0879994861275953e-02  -1.3175240617312546e-02 0.0000000000000000e+00 -7.4380894025221578e-02  -2.5577264340289192e-02 0.0000000000000000e+00 -7.1589508227377252e-02  -4.2523304854803302e-02 0.0000000000000000e+00 -1.5901916309785880e-02  -3.1028195380581811e-02 0.0000000000000000e+00 -3.3863527661334436e-02  -5.0199884339833946e-02 0.0000000000000000e+00 -3.2269058064218613e-02  -3.1315484740982627e-02 0.0000000000000000e+00 -5.4961495181727424e-02  -1.3988759416438550e-02 0.0000000000000000e+00 -1.0715766292036785e-01  -1.5210353231502520e-02 0.0000000000000000e+00 -8.8616133660698357e-02  -3.2148386403876524e-02 0.0000000000000000e+00 -1.3116924890532516e-01  -3.6055069957158140e-02 0.0000000000000000e+00 -1.5000760258312279e-01  -4.8628327323845186e-02 0.0000000000000000e+00 -1.4129724290761819e-01  -1.3381985835395166e-01 0.0000000000000000e+00 -1.3640176127004569e-02  -2.1670698306898252e-02 0.0000000000000000e+00 -1.4767461115993319e-01  -1.3969799739800323e-02 0.0000000000000000e+00 -1.3741652084162212e-01  -1.5192208945974561e-02 0.0000000000000000e+00 -1.2401071590600521e-01  -1.4809941341773555e-01 0.0000000000000000e+00 -4.5007091453753034e-02  -1.4308412857023264e-01 0.0000000000000000e+00 -3.0004967769074055e-02  -1.3361440830598081e-01 0.0000000000000000e+00 -4.1215602190691432e-02  -5.7871250912733672e-02 0.0000000000000000e+00 -6.8664340466470727e-02  -4.9882013359818504e-02 0.0000000000000000e+00 -5.1540262778210444e-02  -4.1448629461741972e-02 0.0000000000000000e+00 -6.8658810189161493e-02  -7.5799280709211297e-02 0.0000000000000000e+00 -4.1922330428796145e-02  -6.6101988564880018e-02 0.0000000000000000e+00 -5.4228738999519549e-02  -8.1293515356682403e-02 0.0000000000000000e+00 -5.4379887037350798e-02  -1.4921029161470995e-02 0.0000000000000000e+00 -4.4958717335381877e-02  -1.3940115103148172e-02 0.0000000000000000e+00 -2.7386036342045759e-02  -6.4433989556459542e-02 0.0000000000000000e+00 -1.3383423472219183e-01  -2.9831439170205476e-02 0.0000000000000000e+00 -1.1563370712865954e-01  -2.7105218307929582e-02 0.0000000000000000e+00 -9.9075825336024312e-02  -4.0521513678653413e-02 0.0000000000000000e+00 -1.0165686587064744e-01  -5.3346353366737785e-02 0.0000000000000000e+00 -1.0323569365505277e-01  -4.7386247261580604e-02 0.0000000000000000e+00 -1.1919322342141442e-01  -6.3804310203757972e-02 0.0000000000000000e+00 -1.1476846373300154e-01  -2.5988456758379352e-02 0.0000000000000000e+00 -1.5854104497744725e-02  -1.3524902400078367e-01 0.0000000000000000e+00 -5.4507128094863924e-02  -3.3726398110952363e-02 0.0000000000000000e+00 -8.5680087383815801e-02  -5.0789066420743573e-02 0.0000000000000000e+00 -8.6499633640674034e-02  -9.8006352197111721e-02 0.0000000000000000e+00 -9.7895755029706266e-02  -9.3701558982535155e-02 0.0000000000000000e+00 -8.0595665766632130e-02  -7.9809750014684031e-02 0.0000000000000000e+00 -9.0222499613938231e-02  -6.6821605471843612e-02 0.0000000000000000e+00 -2.6550801085671497e-02  -7.5737351882922466e-02 0.0000000000000000e+00 -1.3980626773976863e-02  -5.9484578929152501e-02 0.0000000000000000e+00 -1.4169726664248476e-02  -7.9547111143445356e-02 0.0000000000000000e+00 -1.0689399987852650e-01  -9.8015725634513690e-02 0.0000000000000000e+00 -1.1869556455164913e-01  -1.1710140910471696e-01 0.0000000000000000e+00 -9.2367369644334604e-02  -6.1746207715400417e-02 0.0000000000000000e+00 -3.9693029968627135e-02  -1.0560607478670843e-01 0.0000000000000000e+00 -3.2632860882589772e-02  -1.1996888080048297e-01 0.0000000000000000e+00 -4.6816754830300580e-02  -1.2419046743438023e-01 0.0000000000000000e+00 -3.0537205407267527e-02  -1.1315209067349578e-01 0.0000000000000000e+00 -1.7108493600401103e-02  -9.3500579971162498e-02 0.0000000000000000e+00 -1.5593069339257647e-02  -8.4884198422988208e-02 0.0000000000000000e+00 -2.8897115918559819e-02  -1.2780518006169866e-01 0.0000000000000000e+00 -7.9871601610052717e-02  -1.0901577176819202e-01 0.0000000000000000e+00 -7.4317187221907305e-02  -7.6491881846022874e-02 0.0000000000000000e+00 -7.0799618993853203e-02  -6.4471954069955692e-02 0.0000000000000000e+00 -8.1559012497025171e-02  -6.4529810972216925e-02 0.0000000000000000e+00 -9.7208733693013347e-02  -1.2905236385142745e-02 0.0000000000000000e+00 -1.2184237489498121e-02  -1.1094724666508532e-01 0.0000000000000000e+00 -1.0664443520943358e-01  -1.0458283706350993e-01 0.0000000000000000e+00 -8.6126149209761652e-02  -9.1018889129728039e-02 0.0000000000000000e+00 -4.6193854112001276e-02  -1.0625930480044135e-01 0.0000000000000000e+00 -5.4202476964179874e-02  -1.2003894408889094e-01 0.0000000000000000e+00 -6.2608320676114590e-02  -7.9556731587084956e-02 0.0000000000000000e+00 -1.2739419468461116e-01  -1.3571369982727891e-01 0.0000000000000000e+00 -6.7998081852258502e-02  -9.2669809841300785e-02 0.0000000000000000e+00 -6.4133100846967092e-02  -1.3834358433324690e-02 0.0000000000000000e+00 -1.5764098235880156e-01  -1.5427534691335845e-01 0.0000000000000000e+00 -1.5314657545196056e-02  -3.9901352097651506e-02 0.0000000000000000e+00 -4.1880348744126245e-02  -1.3560210477195784e-02 -7.0877733759161329e-02 -1.5009148352335319e-01  -1.5299341169840306e-02 -8.4990112476173857e-02 -1.4239942007405451e-01  -1.6085089728722657e-01 -1.2519111149128369e-02 -4.1294837798635846e-02  -4.3111293828451691e-02 -6.9499671188894663e-02 -1.4507296083703938e-01  -5.8276893695700591e-02 -7.7284817681531393e-02 -1.3552049849102846e-01  -4.1985872179573933e-02 -8.6574666657706120e-02 -1.3593002252555997e-01  -5.6318299752619469e-02 -5.7792293624365568e-02 -1.4568203345753181e-01  -6.8735511167911933e-02 -1.1516795069357341e-01 -9.8725468347161685e-02  -8.4117316661244834e-02 -9.9964239536156796e-02 -1.0327817817893573e-01  -8.4160660523038097e-02 -1.1240161170714294e-01 -8.9542267956111990e-02  -9.5126081963071457e-02 -1.0127331415582927e-01 -9.1813455532428798e-02  -3.7731029079757998e-02 -5.3136446983783461e-02 -1.5325747946969021e-01  -2.7608840831669822e-02 -7.9330336479903438e-02 -1.4380341606822816e-01  -2.7588246653932245e-02 -6.4879592008904877e-02 -1.5087910213616312e-01  -8.3493024737037319e-02 -3.7930055767511565e-02 -1.3901513996741216e-01  -7.3532623116232668e-02 -5.1107034980410145e-02 -1.4041364992602604e-01  -6.7605464104166318e-02 -4.1055485349503977e-02 -1.4655691208389179e-01  -1.0320164712483909e-01 -1.2408659862309562e-01 -4.1072168823945744e-02  -1.0453579678837238e-01 -1.1892878941240717e-01 -5.1606163995072458e-02  -1.1176410707352383e-01 -1.1576920627125370e-01 -4.2909912221479989e-02  -8.5866268268550441e-02 -5.1528670539479036e-02 -1.3306673742910408e-01  -1.4988259625495512e-01 -7.1443343546678445e-02 -1.2885660791715447e-02  -1.5625106712348105e-01 -5.5989746197292224e-02 -1.3628697443836445e-02  -3.9356068969812037e-02 -1.6149731997819231e-01 -1.0232337091213807e-02  -4.9850270776262584e-02 -1.5790256993894039e-01 -1.7796200976359498e-02  -5.1653689138697001e-02 -4.0216416336248804e-02 -1.5313233361085166e-01  -7.4657831934882568e-02 -2.9503573619343668e-02 -1.4591349454041150e-01  -8.7704461272624698e-02 -1.7615518924215163e-02 -1.4047282138254960e-01  -6.9953656579773274e-02 -1.5022110251062497e-02 -1.5038561019701482e-01  -1.2696690258047577e-01 -9.7319879106947019e-02 -4.6294958204138897e-02  -1.2988509424760458e-01 -9.9411565087210024e-02 -3.1339975479775677e-02  -1.2098801614889242e-01 -1.0832223867244124e-01 -3.6921234256084970e-02  -1.3620714553042501e-01 -8.8216650928934839e-02 -3.7422135368464983e-02  -1.3828934010685988e-02 -3.2009630246272923e-02 -1.6284697586871810e-01  -1.5668384720915345e-02 -1.2702108350164250e-02 -1.6531233263622441e-01  -2.9319261468412548e-02 -1.9932269926491195e-02 -1.6272088375724289e-01  -9.2864029725286318e-02 -6.0583483725882042e-02 -1.2426135772010642e-01  -7.4209092082412456e-02 -6.5151379484476732e-02 -1.3410170405058228e-01  -1.3423526070290170e-01 -8.2023261495613065e-02 -5.4663050156296508e-02  -1.2234647391182309e-01 -9.3670637525287440e-02 -6.3183210015417518e-02  -1.0700214423920645e-01 -4.8364156173572675e-02 -1.1809501178604356e-01  -1.1708056760067981e-01 -5.1006356532924964e-02 -1.0689000235888262e-01  -1.0558756330017273e-01 -6.2782154695398620e-02 -1.1244840650898584e-01  -6.0811808938087270e-02 -2.7564309814852892e-02 -1.5256842790774053e-01  -9.9303243583564002e-02 -9.0282017513954746e-02 -9.8605238079250757e-02  -9.1361093426572615e-02 -8.4696966421562353e-02 -1.1051946846707357e-01  -9.8601862988794919e-02 -1.0766211893324799e-01 -8.0134350787788966e-02  -3.1286284209827049e-02 -3.7293425556504896e-02 -1.5926503117597629e-01  -1.7057175848604795e-02 -5.1509221034042547e-02 -1.5745104637836599e-01  -3.8878420844823992e-02 -1.0804755863948818e-02 -1.6157581469299670e-01  -8.1390640196337599e-02 -1.4446972410274669e-01 -1.5461219176496078e-02  -9.5640803981738617e-02 -1.3562436475427220e-01 -1.3923427211966884e-02  -1.5516382307308202e-01 -1.3971485989352106e-02 -5.8855564849151817e-02  -1.5840809508976861e-01 -2.6494002978211317e-02 -4.4044589047377666e-02  -9.0847730086145398e-02 -1.1850016065929801e-01 -7.3752105128402953e-02  -1.5115468861906728e-01 -6.4415279822662500e-02 -2.7164592751610754e-02  -1.4830374830158202e-01 -2.1302664710462896e-02 -7.2713133350354300e-02  -1.5149487674550358e-01 -3.2551723155816704e-02 -6.1030104766669854e-02  -8.1762846527766317e-02 -7.7250366552652425e-02 -1.2280954314668766e-01  -8.0280607295350484e-02 -8.9911471891799502e-02 -1.1491697736196807e-01  -6.9645444191417924e-02 -8.6156519558660383e-02 -1.2434437162612355e-01  -1.2234572011067901e-01 -1.5843733169907157e-02 -1.1187266151014096e-01  -1.3453397918456808e-01 -1.6176865629941438e-02 -9.6819006105409736e-02  -4.3322226339659972e-02 -2.4576851919886816e-02 -1.5891557227411851e-01  -5.4362383721542562e-02 -1.2738405011049501e-02 -1.5689957652609524e-01  -7.6450184283592224e-02 -1.2363619650242956e-01 -8.1267589640332386e-02  -1.0202317253923229e-01 -1.1434089286834125e-01 -6.5210481006136425e-02  -1.1132529359179498e-01 -1.0145343123158956e-01 -7.1055274270703850e-02  -1.1620536995585370e-01 -9.0304640097022285e-02 -7.7951017441479184e-02  -1.2572883610012314e-01 -8.0669971927378917e-02 -7.3617832170460945e-02  -1.2843527374124806e-02 -1.1463916687848180e-01 -1.2011616321827617e-01  -1.7103620588750170e-02 -1.2521375266810414e-01 -1.0846179400238408e-01  -1.6030103174044388e-01 -3.4839533658034272e-02 -2.8718853994798330e-02  -1.6363950038574221e-01 -2.7333350911458443e-02 -1.4491331703534734e-02  -1.6068262944983899e-01 -4.1503708983639087e-02 -1.3911422405920009e-02  -1.6277609995147793e-01 -1.8850405455198699e-02 -2.9725378855154725e-02  -1.2719356416743596e-01 -5.2047625708949150e-02 -9.4062860771525744e-02  -1.1643846565882784e-01 -6.5242216830472183e-02 -9.9601763118526726e-02  -1.5507717407135294e-01 -4.2403955784060782e-02 -4.3450623060781707e-02  -1.1638152344709378e-02 -1.3469964205859522e-01 -9.7239645304883660e-02  -2.8897068712960695e-02 -1.3429357322393204e-01 -9.4155009508747792e-02  -5.6528037066290546e-02 -9.3595103846578542e-02 -1.2561642393961520e-01  -1.1387751161418128e-01 -8.0692725362094680e-02 -9.0860172886831819e-02  -1.0358703351512230e-01 -7.6518080706404465e-02 -1.0559206513983733e-01  -1.8924778190423621e-02 -1.4327636988584830e-01 -8.2756902818873171e-02  -3.7125902508222543e-02 -1.4161182911341319e-01 -7.9389685187773534e-02  -2.8052530802355355e-02 -1.4964189133978428e-01 -6.7493133428625174e-02  -1.0622863410870721e-01 -9.5659645037994415e-02 -8.5438198108011731e-02  -9.5055679915538052e-02 -7.3149834581638026e-02 -1.1553568695332998e-01  -1.5644933656795790e-01 -4.9553305065627058e-02 -2.8338293351648960e-02  -1.9983933461135483e-02 -1.5675382397055260e-01 -5.2572257123319935e-02  -3.7214086084619916e-02 -1.5386645643321767e-01 -5.1722197022682513e-02  -2.9875254342330015e-02 -1.5943756251140018e-01 -3.7710634530533742e-02  -4.9120483410607159e-02 -1.5504703740061296e-01 -3.5812692922945269e-02  -4.4044073172897616e-02 -1.3257462862705413e-01 -9.0659025822913339e-02  -3.6278193323985929e-02 -1.2469203415959416e-01 -1.0426292339885596e-01  -1.4393050697203338e-01 -7.9228956363489741e-02 -2.7235265947318454e-02  -1.4376393147987659e-01 -7.3744417353479794e-02 -4.0356850269263646e-02  -1.4098754344923903e-01 -2.5227514900824987e-02 -8.4977044617227507e-02  -1.4388459690652286e-01 -3.5566096404406021e-02 -7.5942572198312380e-02  -1.3465024205266971e-01 -3.5873356284370252e-02 -9.1199829270346464e-02  -1.3753941972131611e-01 -5.2024433245460869e-02 -7.8175169432610256e-02  -1.3600644342962687e-01 -9.3490794058457699e-02 -2.2287058055450865e-02  -1.4212684655258725e-01 -8.5914582021541661e-02 -1.2394931768344183e-02  -1.3494957783565451e-01 -9.7050076599647289e-02 -1.0241951904921345e-02  -6.9448373581754111e-02 -9.9690318253268906e-02 -1.1390219029883922e-01  -1.5072288233926623e-01 -5.7607002367139226e-02 -4.1219314290040623e-02  -1.2695725240016156e-01 -1.0587863093012687e-01 -2.0163570712823924e-02  -5.9773664885500906e-02 -1.5504115552388775e-01 -1.1150412804380914e-02  -1.4255731512248515e-01 -6.8250668370137574e-02 -5.2480935835279505e-02  -4.3252406080477458e-02 -1.0107891195007661e-01 -1.2508893604140783e-01  -2.7517954000279614e-02 -9.4651934310310964e-02 -1.3423394806974659e-01  -3.1966805620027107e-02 -1.0619440013571346e-01 -1.2424110238551145e-01  -4.3263044036302954e-02 -1.1489131474466642e-01 -1.1253113280045718e-01  -2.7137213996405365e-02 -1.1564803687733165e-01 -1.1672222260612684e-01  -1.1826940018414941e-01 -3.4353542632624953e-02 -1.1210335485704409e-01  -1.1285068199516400e-01 -2.2808550469121468e-02 -1.2033075270638811e-01  -1.4860129746713827e-01 -5.1162282086053876e-02 -5.5091509731289630e-02  -1.0227753818457931e-01 -1.6278400300363725e-02 -1.3041978815823999e-01  -1.0587450778143792e-01 -3.2993637487988385e-02 -1.2424571444683659e-01  -1.1112176225276005e-01 -1.0259089939426485e-02 -1.2361924431268356e-01  -1.4528270302725790e-01 -4.5376937604528586e-02 -6.7593382313331882e-02  -1.4252727584308764e-01 -5.8308602539963929e-02 -6.3412015555276244e-02  -8.7331983781887459e-02 -1.3913577820201928e-01 -2.7374139114618976e-02  -9.3708145051478370e-02 -1.3202334630812301e-01 -3.9033328192642713e-02  -9.9849518216461139e-02 -1.3058254041898260e-01 -2.6706943653979145e-02  -8.2591718623260313e-02 -1.3755957512146280e-01 -4.4620000458724128e-02  -8.1518875179727363e-02 -1.280519