<?xml version="1.0"?>
<VTKFile type="UnstructuredGrid"  version="0.1"  >
<UnstructuredGrid>
<Piece  NumberOfPoints="597" NumberOfCells="2124">
<Points>
<DataArray  type="Float64"  NumberOfComponents="3"  format="ascii">0 0 0  1 0 0  0 1 0  0 0 1  0.09999999999981467 0 0  0.1999999999995579 0 0  0.2999999999992664 0 0  0.3999999999989749 0 0  0.4999999999986943 0 0  0.5999999999989468 0 0  0.69999999999921 0 0  0.7999999999994734 0 0  0.8999999999997368 0 0  0 0.09999999999981467 0  0 0.1999999999995579 0  0 0.2999999999992664 0  0 0.3999999999989749 0  0 0.4999999999986943 0  0 0.5999999999989468 0  0 0.69999999999921 0  0 0.7999999999994734 0  0 0.8999999999997368 0  0 0 0.09999999999981467  0 0 0.1999999999995579  0 0 0.2999999999992664  0 0 0.3999999999989749  0 0 0.4999999999986943  0 0 0.5999999999989468  0 0 0.69999999999921  0 0 0.7999999999994734  0 0 0.8999999999997368  0.9951847266502585 0.09801714055230534 0  0.9807852803038259 0.1950903225158687 0  0.9569403355024331 0.2902846780119318 0  0.9238795320817892 0.3826834334019886 0  0.8819212636904032 0.4713967380569389 0  0.8314696113679687 0.5555702344182949 0  0.7730104520841969 0.6343932857215511 0  0.7071067795733449 0.7071067827997501 0  0.634393282646958 0.7730104546074502 0  0.5555702316245595 0.8314696132346829 0  0.471396735522105 0.8819212650453002 0  0.3826834312318057 0.9238795329807084 0  0.2902846763682919 0.9569403360010258 0  0.1950903214145686 0.980785280522888 0  0.0980171400302339 0.995184726701678 0  0.9951847266502585 0 0.09801714055230534  0.9807852803038259 0 0.1950903225158687  0.9569403355024331 0 0.2902846780119318  0.9238795320817892 0 0.3826834334019886  0.8819212636904032 0 0.4713967380569389  0.8314696113679687 0 0.5555702344182949  0.7730104520841969 0 0.6343932857215511  0.7071067795733449 0 0.7071067827997501  0.634393282646958 0 0.7730104546074502  0.5555702316245595 0 0.8314696132346829  0.471396735522105 0 0.8819212650453002  0.3826834312318057 0 0.9238795329807084  0.2902846763682919 0 0.9569403360010258  0.1950903214145686 0 0.980785280522888  0.0980171400302339 0 0.995184726701678  0 0.9951847266502585 0.09801714055230534  0 0.9807852803038259 0.1950903225158687  0 0.9569403355024331 0.2902846780119318  0 0.9238795320817892 0.3826834334019886  0 0.8819212636904032 0.4713967380569389  0 0.8314696113679687 0.5555702344182949  0 0.7730104520841969 0.6343932857215511  0 0.7071067795733449 0.7071067827997501  0 0.634393282646958 0.7730104546074502  0 0.5555702316245595 0.8314696132346829  0 0.471396735522105 0.8819212650453002  0 0.3826834312318057 0.9238795329807084  0 0.2902846763682919 0.9569403360010258  0 0.1950903214145686 0.980785280522888  0 0.0980171400302339 0.995184726701678  0.09240154966779951 0 0.3658235692199516  0.07916357488785433 0 0.4469199030523527  0.1536813483092524 0 0.4301465381022301  0.2555379022644893 0 0.09556049568595243  0.1864593291765566 0 0.2034979771761179  0.301651764011142 0 0.1939053326038485  0.1881720785854029 0 0.3302588474155368  0.08403438330774521 0 0.6437268466185475  0.09138388892861184 0 0.5324072873297468  0.1930859140709486 0 0.7878139522981464  0.2165176696171426 0 0.900824597607195  0.292033522918994 0 0.8485491372975176  0.8037370491763215 0 0.0819245024222376  0.13014171782822 0 0.8868491929551598  0.08390174260734276 0 0.8253161934654943  0.0912526277304111 0 0.7448765232291942  0.8893622411880446 0 0.270275215225845  0.8593018882538136 0 0.1801969264281539  0.8024703672696746 0 0.2475353432181931  0.3476914857890963 0 0.4125368919261175  0.2997235777995208 0 0.3096876237048341  0.2490386282757974 0 0.412527605219857  0.4554126154120848 0 0.2518749964366375  0.39715257119151 0 0.3258159451822259  0.4883877361055989 0 0.3266984434363212  0.08966539318254355 0 0.2701713986717769  0.08377502767602918 0 0.164580120521203  0.3869558528229924 0 0.8037364723405749  0.1791913905804899 0 0.6945879747883159  0.1628348997531483 0 0.5951991143072877  0.2434219731662663 0 0.6106761106298939  0.3204481765543245 0 0.6201302437713152  0.2846206283417919 0 0.7159219267704837  0.3832252637688779 0 0.6893291551637116  0.1561812521325313 0 0.09527745928338882  0.8122499659106144 0 0.3273472587872134  0.2026260329838435 0 0.5147603927306801  0.3051207491780334 0 0.5196560474248884  0.5886190882535927 0 0.5879547877726188  0.5628286668856228 0 0.4841066442899339  0.4793970684942127 0 0.5419440173923771  0.4015076433379883 0 0.1595345792024606  0.4550663848726773 0 0.08400234057127416  0.3574412370957718 0 0.08514557536940835  0.4777735346904641 0 0.6420237002140541  0.5886050303809575 0 0.712791733722679  0.7032448955145116 0 0.5547060123784804  0.3710082806848816 0 0.2384994559961529  0.6343947712920404 0 0.1960314230465952  0.7205780420889929 0 0.2811987241304542  0.745939430962431 0 0.1834190974026157  0.6797060130425652 0 0.1027709852058109  0.5617353506566283 0 0.09368054426051139  0.5099863318045709 0 0.1736146479983669  0.767516113391133 0 0.4796577434100839  0.6547738563668709 0 0.4463662193850245  0.4595209371514753 0 0.4253249285837939  0.3873123962753185 0 0.4899626124422253  0.3876250349852705 0 0.5839247669697213  0.07755778095112512 0 0.07322480571131515  0.6662618639536104 0 0.6404224526940073  0.6281317226641706 0 0.5172795154653362  0.5467991787548994 0 0.2775110285514451  0.6382784164401777 0 0.32558335190295  0.7209625386664502 0 0.3760300013763025  0.4777689774710401 0 0.7650512433185178  0.8150026845526732 0 0.4083495007681245  0.5566757769165783 0 0.3852531587967231  0.08307535298787436 0 0.9466352209487393  0.9264479164039098 0 0.09196696687313166  0.2397696045481275 0 0.2516617606603849  0.08142379610690136 0.4255946222877561 0.9012432429190713  0.09186671735860186 0.5103340042487068 0.8550553843753256  0.9658493887414453 0.07517233868428744 0.2479598309495128  0.2588669386047153 0.4173196613385269 0.8711097567802347  0.349931687668115 0.4640670731596268 0.8137503091088829  0.2521091443082024 0.5198490772623717 0.8162094806026494  0.3381706165708041 0.3470207631890471 0.8747669541105296  0.4127313919422814 0.6915412096022421 0.5928098797483512  0.505094034203222 0.6002477622197614 0.6201472732847281  0.5053541985510116 0.6749299798537994 0.5376677936248502  0.5711974176563547 0.6081084457949028 0.5513053856218164  0.2265606352222516 0.3190644824037021 0.9202543858282597  0.1657801920411619 0.4763492767397394 0.8634861287110075  0.1656568208377873 0.3895779149708851 0.9059728836322062  0.501344556404584 0.2277556352228774 0.8347340932223356  0.4415367071350051 0.3068779784495727 0.8431318061816198  0.4059460944519277 0.2465220798785426 0.8800196773547647  0.6196876017566089 0.7450935593761555 0.2466229186537899  0.627698728320387 0.714123017011242 0.3098751733194038  0.6711018023358704 0.69515091935471 0.2576578549585624  0.5155953815884997 0.3094099022200982 0.7990162169147497  0.899989132227882 0.4289906012996104 0.07737328911389559  0.9382293875188548 0.3361973257557999 0.08183504475860598  0.2363183186651487 0.9697312279355392 0.06144101097726593  0.2993323950146074 0.9481462475789452 0.106858834434898  0.3101615066201264 0.2414838162804179 0.9195028038487859  0.4482922838801319 0.1771577048152243 0.8761559084079369  0.5266326972169642 0.1057746683003005 0.8434866458741044  0.4200451415729211 0.09020206018716082 0.9030092288448531  0.7623891105001969 0.5843698709159578 0.2779832695620105  0.7799115838824263 0.596929282445646 0.1881843592994147  0.7264879983305693 0.6504346235700518 0.2216979673856474  0.8178732076005444 0.5297083005156807 0.2247054353013872  0.08303734348179403 0.1922053315992417 0.9778353184930026  0.09408269694107538 0.07627092328721888 0.9926385003601306  0.1760515877647063 0.1196852712822077 0.9770779264130525  0.5576143975194612 0.3637809431371279 0.7461431558952143  0.4455986119305068 0.3912097319557027 0.8052309126385754  0.8060332204752099 0.4925189261569118 0.3282309474556054  0.7346451337886817 0.5624574787189985 0.379391765901261  0.642508165502269 0.2904084282097414 0.7091164940174894  0.7030254185009037 0.306273768786429 0.6418345888895255  0.6340141384684502 0.3769833468372913 0.6752108029567235  0.365152486570974 0.1655128603952953 0.9161163433728284  0.5962792236506059 0.542109883053058 0.5920877993497508  0.5485896415631504 0.5085733599282969 0.6636283167111371  0.5920678220815722 0.6464708649476155 0.4811768020483384  0.1878625042731283 0.2239323962641036 0.9563273296270713  0.1024217313722561 0.3092935774102874 0.9454349644028699  0.2334505071908325 0.06487815783086033 0.9702018786463037  0.4887206245964966 0.8674866792832123 0.09283863613924619  0.5742874233407752 0.8143734795796027 0.08360497084518105  0.9317006522490203 0.08389294215323394 0.3534060962343804  0.951181716421189 0.1590863374964037 0.2644709427669156  0.5455072387620422 0.7115493400103802 0.4428536882413925  0.9076276342048921 0.3867895805147213 0.1631131448807132  0.8905082493452895 0.127913990281725 0.4366154703376809  0.9096700297655037 0.1954608695184058 0.3664634844476816  0.4909557921631998 0.4638599224188366 0.7374255098075979  0.4820557633059458 0.5398846258057163 0.6900339353119844  0.4181956098394346 0.5173376920524271 0.7466419116905315  0.7346402167242096 0.09513558808181954 0.67175365414096  0.8078263850243458 0.09713596463829366 0.5813614504181416  0.2601336813274003 0.1475738587985683 0.954228706358363  0.3264256065230105 0.07648882390671821 0.9421230191559125  0.4590556119879899 0.7423895417623142 0.4879812633537003  0.6126112913498895 0.686574629053208 0.3915644065170771  0.6684671903139626 0.6091898762120843 0.4266606499250449  0.6977699223891808 0.542245960309553 0.4680667195357594  0.7549550374165268 0.4843931863016896 0.4420476586793638  0.07712060794257616 0.6883652307079324 0.7212528828247291  0.1027005936763692 0.7518617879958691 0.6512729380299598  0.9625479306552708 0.2091983633587219 0.1724457188778192  0.9825939555666527 0.1641265719497667 0.08701486576382911  0.964839163020035 0.2492141217550538 0.08353269432177644  0.97740960683
[...]
<PointData  Vectors="Solid displacement [m]"> 
<DataArray  type="Float64"  Name="Solid displacement [m]"  NumberOfComponents="3" format="ascii">0.0000000000000000e+00 0.0000000000000000e+00 0.0000000000000000e+00  -1.6661391463193612e-01 0.0000000000000000e+00 0.0000000000000000e+00  0.0000000000000000e+00 -1.6661391133931988e-01 0.0000000000000000e+00  0.0000000000000000e+00 0.0000000000000000e+00 -1.6661392641290318e-01  -1.6655482533875623e-02 0.0000000000000000e+00 0.0000000000000000e+00  -3.3311477404828115e-02 0.0000000000000000e+00 0.0000000000000000e+00  -4.9968339612557575e-02 0.0000000000000000e+00 0.0000000000000000e+00  -6.6626478202619507e-02 0.0000000000000000e+00 0.0000000000000000e+00  -8.3286248908998245e-02 0.0000000000000000e+00 0.0000000000000000e+00  -9.9947849976153677e-02 0.0000000000000000e+00 0.0000000000000000e+00  -1.1661143565089210e-01 0.0000000000000000e+00 0.0000000000000000e+00  -1.3327703273801750e-01 0.0000000000000000e+00 0.0000000000000000e+00  -1.4994457777750034e-01 0.0000000000000000e+00 0.0000000000000000e+00  0.0000000000000000e+00 -1.6655488274931587e-02 0.0000000000000000e+00  0.0000000000000000e+00 -3.3311446336584255e-02 0.0000000000000000e+00  0.0000000000000000e+00 -4.9968304663614078e-02 0.0000000000000000e+00  0.0000000000000000e+00 -6.6626470276788433e-02 0.0000000000000000e+00  0.0000000000000000e+00 -8.3286239097569326e-02 0.0000000000000000e+00  0.0000000000000000e+00 -9.9947844501965921e-02 0.0000000000000000e+00  0.0000000000000000e+00 -1.1661142845211454e-01 0.0000000000000000e+00  0.0000000000000000e+00 -1.3327703767127988e-01 0.0000000000000000e+00  0.0000000000000000e+00 -1.4994459548550565e-01 0.0000000000000000e+00  0.0000000000000000e+00 0.0000000000000000e+00 -1.6655485003362960e-02  0.0000000000000000e+00 0.0000000000000000e+00 -3.3311468117533827e-02  0.0000000000000000e+00 0.0000000000000000e+00 -4.9968319561240225e-02  0.0000000000000000e+00 0.0000000000000000e+00 -6.6626464185575190e-02  0.0000000000000000e+00 0.0000000000000000e+00 -8.3286240013855956e-02  0.0000000000000000e+00 0.0000000000000000e+00 -9.9947842948246171e-02  0.0000000000000000e+00 0.0000000000000000e+00 -1.1661141821362951e-01  0.0000000000000000e+00 0.0000000000000000e+00 -1.3327702641575334e-01  0.0000000000000000e+00 0.0000000000000000e+00 -1.4994459416458109e-01  -1.6581162628559484e-01 -1.6331030644907180e-02 0.0000000000000000e+00  -1.6341247622764682e-01 -3.2504769539430323e-02 0.0000000000000000e+00  -1.5943956969932460e-01 -4.8365475507812547e-02 0.0000000000000000e+00  -1.5393117323584635e-01 -6.3760386163263086e-02 0.0000000000000000e+00  -1.4694034536905703e-01 -7.8541247093116828e-02 0.0000000000000000e+00  -1.3853441251231660e-01 -9.2565721122580769e-02 0.0000000000000000e+00  -1.2879427944063460e-01 -1.0569877024420064e-01 0.0000000000000000e+00  -1.1781381831934722e-01 -1.1781384736463796e-01 0.0000000000000000e+00  -1.0569871938300102e-01 -1.2879431813308209e-01 0.0000000000000000e+00  -9.2565696998699612e-02 -1.3853441866280958e-01 0.0000000000000000e+00  -7.8541264821606491e-02 -1.4694033327714559e-01 0.0000000000000000e+00  -6.3760355008550706e-02 -1.5393117777336371e-01 0.0000000000000000e+00  -4.8365469437994267e-02 -1.5943954526100743e-01 0.0000000000000000e+00  -3.2504762251858346e-02 -1.6341246377417540e-01 0.0000000000000000e+00  -1.6331038705372024e-02 -1.6581162675559399e-01 0.0000000000000000e+00  -1.6581163104119090e-01 0.0000000000000000e+00 -1.6331028688133277e-02  -1.6341248436152631e-01 0.0000000000000000e+00 -3.2504739627587230e-02  -1.5943957217482749e-01 0.0000000000000000e+00 -4.8365482191510496e-02  -1.5393121026944256e-01 0.0000000000000000e+00 -6.3760350976554234e-02  -1.4694036749812134e-01 0.0000000000000000e+00 -7.8541282574162014e-02  -1.3853439733707770e-01 0.0000000000000000e+00 -9.2565778232971199e-02  -1.2879428739543622e-01 0.0000000000000000e+00 -1.0569875190830777e-01  -1.1781385569766921e-01 0.0000000000000000e+00 -1.1781381010952159e-01  -1.0569871832426282e-01 0.0000000000000000e+00 -1.2879434101377968e-01  -9.2565708628395332e-02 0.0000000000000000e+00 -1.3853440676472620e-01  -7.8541274793870408e-02 0.0000000000000000e+00 -1.4694033698560294e-01  -6.3760412259617996e-02 0.0000000000000000e+00 -1.5393119192299545e-01  -4.8365471561623539e-02 0.0000000000000000e+00 -1.5943959774381691e-01  -3.2504710095496360e-02 0.0000000000000000e+00 -1.6341249373455671e-01  -1.6331029520383608e-02 0.0000000000000000e+00 -1.6581164541982937e-01  0.0000000000000000e+00 -1.6581161322192994e-01 -1.6331083440583951e-02  0.0000000000000000e+00 -1.6341244830307744e-01 -3.2504773583696661e-02  0.0000000000000000e+00 -1.5943952421586646e-01 -4.8365512042748367e-02  0.0000000000000000e+00 -1.5393116450070801e-01 -6.3760364224913157e-02  0.0000000000000000e+00 -1.4694032624351633e-01 -7.8541247719890017e-02  0.0000000000000000e+00 -1.3853442260868021e-01 -9.2565670040114761e-02  0.0000000000000000e+00 -1.2879427690944159e-01 -1.0569875145001068e-01  0.0000000000000000e+00 -1.1781384086848555e-01 -1.1781378863087015e-01  0.0000000000000000e+00 -1.0569874550990357e-01 -1.2879427227987306e-01  0.0000000000000000e+00 -9.2565706382048030e-02 -1.3853440056564942e-01  0.0000000000000000e+00 -7.8541251213308572e-02 -1.4694033676424184e-01  0.0000000000000000e+00 -6.3760358043421866e-02 -1.5393118026227404e-01  0.0000000000000000e+00 -4.8365469507044054e-02 -1.5943956180258731e-01  0.0000000000000000e+00 -3.2504793502624717e-02 -1.6341247602796050e-01  0.0000000000000000e+00 -1.6331066194098465e-02 -1.6581163549510602e-01  -1.5390861882196417e-02 0.0000000000000000e+00 -6.0933369304340679e-02  -1.3186250438727216e-02 0.0000000000000000e+00 -7.4443197478484477e-02  -2.5598645757938954e-02 0.0000000000000000e+00 -7.1649352080983761e-02  -4.2562390450586775e-02 0.0000000000000000e+00 -1.5916545955259213e-02  -3.1056685007286398e-02 0.0000000000000000e+00 -3.3894634394517724e-02  -5.0244309818034849e-02 0.0000000000000000e+00 -3.2297628923507307e-02  -3.1342895611630756e-02 0.0000000000000000e+00 -5.5009594654705854e-02  -1.3998757482492460e-02 0.0000000000000000e+00 -1.0723433409245131e-01  -1.5222309413872316e-02 0.0000000000000000e+00 -8.8685894067359133e-02  -3.2167591348262942e-02 0.0000000000000000e+00 -1.3124764716367326e-01  -3.6073455455318877e-02 0.0000000000000000e+00 -1.5008408847761170e-01  -4.8654205381641807e-02 0.0000000000000000e+00 -1.4137242269380310e-01  -1.3390016538532293e-01 0.0000000000000000e+00 -1.3648369403706196e-02  -2.1682238024054095e-02 0.0000000000000000e+00 -1.4775331057043462e-01  -1.3977943776556208e-02 0.0000000000000000e+00 -1.3749674631529560e-01  -1.5201966183488238e-02 0.0000000000000000e+00 -1.2409046609359228e-01  -1.4817460114034556e-01 0.0000000000000000e+00 -4.5029936273199497e-02  -1.4316239505833825e-01 0.0000000000000000e+00 -3.0021376757542271e-02  -1.3369137878510093e-01 0.0000000000000000e+00 -4.1239336934701304e-02  -5.7916807734683773e-02 0.0000000000000000e+00 -6.8718426674279340e-02  -4.9924380806543885e-02 0.0000000000000000e+00 -5.1584058785966343e-02  -4.1482685760765498e-02 0.0000000000000000e+00 -6.8715242570493995e-02  -7.5859855311398036e-02 0.0000000000000000e+00 -4.1955813547477440e-02  -6.6155072349973990e-02 0.0000000000000000e+00 -5.4272286019806007e-02  -8.1355043630152862e-02 0.0000000000000000e+00 -5.4421039280060132e-02  -1.4934698576309031e-02 0.0000000000000000e+00 -4.4999866970930967e-02  -1.3953305252000180e-02 0.0000000000000000e+00 -2.7411948126338515e-02  -6.4468543072265391e-02 0.0000000000000000e+00 -1.3390601568343075e-01  -2.9851347124625290e-02 0.0000000000000000e+00 -1.1571085577614562e-01  -2.7125208184282653e-02 0.0000000000000000e+00 -9.9148892378047665e-02  -4.0550271768328969e-02 0.0000000000000000e+00 -1.0172902498902515e-01  -5.3382688079593794e-02 0.0000000000000000e+00 -1.0330600356271544e-01  -4.7416012128853803e-02 0.0000000000000000e+00 -1.1926809945540737e-01  -6.3843526330395250e-02 0.0000000000000000e+00 -1.1483899857963539e-01  -2.6013053732061753e-02 0.0000000000000000e+00 -1.5869110638182877e-02  -1.3532323586509784e-01 0.0000000000000000e+00 -5.4537025067374241e-02  -3.3752677296112019e-02 0.0000000000000000e+00 -8.5746841606067783e-02  -5.0827001021537116e-02 0.0000000000000000e+00 -8.6564264781066380e-02  -9.8063396380137696e-02 0.0000000000000000e+00 -9.7952728765879224e-02  -9.3762367449779851e-02 0.0000000000000000e+00 -8.0647965026837104e-02  -7.9862630415691194e-02 0.0000000000000000e+00 -9.0282297415020751e-02  -6.6878358573259591e-02 0.0000000000000000e+00 -2.6573361770177245e-02  -7.5800414780416839e-02 0.0000000000000000e+00 -1.3992269777980113e-02  -5.9536987552981820e-02 0.0000000000000000e+00 -1.4182217557574340e-02  -7.9595307969308804e-02 0.0000000000000000e+00 -1.0695877391653592e-01  -9.8065867420983777e-02 0.0000000000000000e+00 -1.1875627811357402e-01  -1.1716389930819826e-01 0.0000000000000000e+00 -9.2416639328083000e-02  -6.1798348374387621e-02 0.0000000000000000e+00 -3.9726538843760199e-02  -1.0568053218381113e-01 0.0000000000000000e+00 -3.2655861941825785e-02  -1.2004397000271266e-01 0.0000000000000000e+00 -4.6846033709007515e-02  -1.2426868576409672e-01 0.0000000000000000e+00 -3.0556436794510426e-02  -1.1322999899211829e-01 0.0000000000000000e+00 -1.7120278354584257e-02  -9.3572440151787159e-02 0.0000000000000000e+00 -1.5605060739856118e-02  -8.4951077621428506e-02 0.0000000000000000e+00 -2.8919890630892866e-02  -1.2787244137975110e-01 0.0000000000000000e+00 -7.9913638766554024e-02  -1.0908246288864530e-01 0.0000000000000000e+00 -7.4362657221150846e-02  -7.6547813669256268e-02 0.0000000000000000e+00 -7.0851384601032769e-02  -6.4519149783969040e-02 0.0000000000000000e+00 -8.1618762947558723e-02  -6.4573618970245106e-02 0.0000000000000000e+00 -9.7274751157938114e-02  -1.2917643550148449e-02 0.0000000000000000e+00 -1.2195959126227408e-02  -1.1100403643508465e-01 0.0000000000000000e+00 -1.0669901159708932e-01  -1.0464515636243762e-01 0.0000000000000000e+00 -8.6177463705369078e-02  -9.1086230073023952e-02 0.0000000000000000e+00 -4.6228013740455869e-02  -1.0633025349256403e-01 0.0000000000000000e+00 -5.4238657893057790e-02  -1.2011051003298799e-01 0.0000000000000000e+00 -6.2645639317250798e-02  -7.9598813339996494e-02 0.0000000000000000e+00 -1.2746155833213804e-01  -1.3578444212563673e-01 0.0000000000000000e+00 -6.8033528297103296e-02  -9.2734310617674884e-02 0.0000000000000000e+00 -6.4177732099834531e-02  -1.3841153206252730e-02 0.0000000000000000e+00 -1.5771848396683233e-01  -1.5435348753473530e-01 0.0000000000000000e+00 -1.5322416437014033e-02  -3.9936845898791283e-02 0.0000000000000000e+00 -4.1917627214581199e-02  -1.3566350427048459e-02 -7.0909960660887977e-02 -1.5015965884017074e-01  -1.5306280076493661e-02 -8.5028732298154108e-02 -1.4246411192840497e-01  -1.6092394888710909e-01 -1.2524773767512008e-02 -4.1313572281124158e-02  -4.3130850280855823e-02 -6.9531251477603528e-02 -1.4513894167297442e-01  -5.8303436137407870e-02 -7.7319985021659987e-02 -1.3558209296191046e-01  -4.2004911736163032e-02 -8.6614047224928853e-02 -1.3599181604957089e-01  -5.6343908687698896e-02 -5.7818509687569984e-02 -1.4574828544733076e-01  -6.8766766529373441e-02 -1.1522033397736005e-01 -9.8770346633593228e-02  -8.4155622760529306e-02 -1.0000963382827341e-01 -1.0332513160241960e-01  -8.4198976556586924e-02 -1.1245269933235055e-01 -8.9582935614311632e-02  -9.5169375139903631e-02 -1.0131932072787127e-01 -9.1855150868408023e-02  -3.7748158851920531e-02 -5.3160581390703732e-02 -1.5332714401101233e-01  -2.7621325015623491e-02 -7.9366396417165155e-02 -1.4386877248839788e-01  -2.7600749872712230e-02 -6.4909083734283377e-02 -1.5094766323315587e-01  -8.3530964966792090e-02 -3.7947268004371114e-02 -1.3907829907274960e-01  -7.3566101774678136e-02 -5.1130184382117215e-02 -1.4047746228967148e-01  -6.7636227047379760e-02 -4.1074059161179587e-02 -1.4662350296465912e-01  -1.0324855290765524e-01 -1.2414295476745749e-01 -4.1090815090582759e-02  -1.0458331413685278e-01 -1.1898281979206884e-01 -5.1629551086005337e-02  -1.1181488543762284e-01 -1.1582180323800426e-01 -4.2929390712994536e-02  -8.5905324294547031e-02 -5.1552027156553000e-02 -1.3312720021436819e-01  -1.4995069429068239e-01 -7.1475798270325103e-02 -1.2891485671342923e-02  -1.5632205480963196e-01 -5.6015161754790689e-02 -1.3634869486280980e-02  -3.9373929655856128e-02 -1.6157069589437467e-01 -1.0236950742871150e-02  -4.9872929418841944e-02 -1.5797432772193593e-01 -1.7804215839135447e-02  -5.1677192329745138e-02 -4.0234612175350321e-02 -1.5320192875102651e-01  -7.4691735137421722e-02 -2.9516952880451714e-02 -1.4597976496973772e-01  -8.7744318269061039e-02 -1.7623526538665085e-02 -1.4053661518427701e-01  -6.9985390814765708e-02 -1.5028924297392983e-02 -1.5045390587965571e-01  -1.2702460657468526e-01 -9.7364121790715838e-02 -4.6315923119503007e-02  -1.2994410642409909e-01 -9.9456720482519204e-02 -3.1354164127662211e-02  -1.2104299117562696e-01 -1.0837144915169739e-01 -3.6937981207586984e-02  -1.3626903615827310e-01 -8.8256749991680469e-02 -3.7439084707025214e-02  -1.3835192391107034e-02 -3.2024117745939197e-02 -1.6292095614678073e-01  -1.5675492339889595e-02 -1.2707830017872346e-02 -1.6538739702237990e-01  -2.9332616757668357e-02 -1.9941268931681435e-02 -1.6279478161607117e-01  -9.2906271642672011e-02 -6.0610980082296560e-02 -1.2431781616910867e-01  -7.4242874236632048e-02 -6.5180978442927640e-02 -1.3416264755876520e-01  -1.3429629924847977e-01 -8.2060509428745362e-02 -5.4687856752864888e-02  -1.2240207624339461e-01 -9.3713216655960010e-02 -6.3211930275067482e-02  -1.0705077625302881e-01 -4.8386100094664555e-02 -1.1814866343542446e-01  -1.1713378620581283e-01 -5.1029492288776984e-02 -1.0693856315466128e-01  -1.0563555303377213e-01 -6.2810670024725804e-02 -1.1249949946494163e-01  -6.0839461623931196e-02 -2.7576779708189895e-02 -1.5263772590887589e-01  -9.9348386236840280e-02 -9.0323037867740208e-02 -9.8650047753499656e-02  -9.1402634469243238e-02 -8.4735412649684524e-02 -1.1056969168340752e-01  -9.8646699495047604e-02 -1.0771103090572472e-01 -8.0170748435320890e-02  -3.1300501586581903e-02 -3.7310298292986162e-02 -1.5933740897299195e-01  -1.7064900834370542e-02 -5.1532614198549452e-02 -1.5752259386328499e-01  -3.8896092744393485e-02 -1.0809628161419270e-02 -1.6164915942717509e-01  -8.1427635419289726e-02 -1.4453534585995212e-01 -1.5468221977404837e-02  -9.5684261481569943e-02 -1.3568595656342311e-01 -1.3929751196568838e-02  -1.5523429321890500e-01 -1.3977772529740886e-02 -5.8882341137417547e-02  -1.5848008046401632e-01 -2.6506013172017850e-02 -4.4064561110366864e-02  -9.0889052882878352e-02 -1.1855400404362060e-01 -7.3785592528750110e-02  -1.5122337065051517e-01 -6.4444529876636861e-02 -2.7176923893480625e-02  -1.4837108095392784e-01 -2.1312287231955065e-02 -7.2746189981344647e-02  -1.5156368316040753e-01 -3.2566503298006887e-02 -6.1057877525862621e-02  -8.1800031210165949e-02 -7.7285490300953802e-02 -1.2286533798459436e-01  -8.0317144585605141e-02 -8.9952297490313346e-02 -1.1496921981610995e-01  -6.9677153152748639e-02 -8.6195654401626937e-02 -1.2440089609203919e-01  -1.2240128373130135e-01 -1.5850919382327966e-02 -1.1192349144061076e-01  -1.3459510154836113e-01 -1.6184207154147492e-02 -9.6862936310258427e-02  -4.3341895476878500e-02 -2.4587922233843033e-02 -1.5898776647548185e-01  -5.4387058519387160e-02 -1.2744138525426791e-02 -1.5697081706544963e-01  -7.6484992182411685e-02 -1.2369239506752074e-01 -8.1304480990623013e-02  -1.0206954193712092e-01 -1.1439286046799042e-01 -6.5240086389083712e-02  -1.1137590198133411e-01 -1.0149950928007459e-01 -7.1087578206771959e-02  -1.1625816535129427e-01 -9.0345694006997615e-02 -7.7986425125276329e-02  -1.2578598296166843e-01 -8.0706630498533619e-02 -7.3651281099743074e-02  -1.2849363970819448e-02 -1.1469122850138209e-01 -1.2017074570114310e-01  -1.7111364609358255e-02 -1.2527062963050592e-01 -1.0851110094839343e-01  -1.6037386096593229e-01 -3.4855357608937994e-02 -2.8731873087417190e-02  -1.6371382333352302e-01 -2.7345768272290114e-02 -1.4497898010564728e-02  -1.6075562030172527e-01 -4.1522547907172906e-02 -1.3917722070874621e-02  -1.6285003544104440e-01 -1.8858950719519648e-02 -2.9738881423580891e-02  -1.2725136509512164e-01 -5.2071218954752141e-02 -9.4105617803815864e-02  -1.1649138127378691e-01 -6.5271825163812955e-02 -9.9647045723809932e-02  -1.5514763421409886e-01 -4.2423228626192244e-02 -4.3470348703729997e-02  -1.1643397264103605e-02 -1.3476081547763349e-01 -9.7283845693344737e-02  -2.8910206975143331e-02 -1.3435459811792927e-01 -9.4197807738597802e-02  -5.6553740410383177e-02 -9.3637655031951580e-02 -1.2567354585902082e-01  -1.1392925050774366e-01 -8.0729410056220516e-02 -9.0901458298190088e-02  -1.0363409686941923e-01 -7.6552830434810565e-02 -1.0564007256567311e-01  -1.8933384353487456e-02 -1.4334147112067672e-01 -8.2794533416680860e-02  -3.7142781659154307e-02 -1.4167618796865003e-01 -7.9425779420210826e-02  -2.8065277104819354e-02 -1.4970991029669567e-01 -6.7523811956447813e-02  -1.0627692051582018e-01 -9.5703112605171212e-02 -8.5477002215316900e-02  -9.5098905982756790e-02 -7.3183073941183632e-02 -1.1558816137177653e-01  -1.5652042030495183e-01 -4.9575808801285988e-02 -2.8351153304771323e-02  -1.9993015053342750e-02 -1.5682508682425578e-01 -5.2596129638121686e-02  -3.7230985568249893e-02 -1.5393640573491088e-01 -5.1745702334360343e-02  -2.9888811096604833e-02 -1.5951005389202405e-01 -3.7727737895992298e-02  -4.9142830175748158e-02 -1.5511753574235818e-01 -3.5828913572786461e-02  -4.4064062199545007e-02 -1.3263487852076822e-01 -9.0700237266900963e-02  -3.6294679319416538e-02 -1.2474870142287134e-01 -1.0431031530992566e-01  -1.4399590760936679e-01 -7.9264959326075010e-02 -2.7247626233176326e-02  -1.4382926389817130e-01 -7.3777902859810632e-02 -4.0375165816569365e-02  -1.4105156939590091e-01 -2.5238930493596989e-02 -8.5015609431177641e-02  -1.4394995984203721e-01 -3.5582204935024966e-02 -7.5977052834271946e-02  -1.3471142008011205e-01 -3.5889586459462157e-02 -9.1241250797678003e-02  -1.3760193415066366e-01 -5.2048029211100549e-02 -7.8210638042998548e-02  -1.3606821113622741e-01 -9.3533278742531742e-02 -2.2297143956901990e-02  -1.4219139445552961e-01 -8.5953634549322200e-02 -1.2400539312044422e-02  -1.3501087444611823e-01 -9.7094129256466918e-02 -1.0246590610064454e-02  -6.9479982502159018e-02 -9.9735599075499476e-02 -1.1395401298278308e-01  -1.5079136143047092e-01 -5.7633158998391928e-02 -4.1238038503772972e-02  -1.2701493318520693e-01 -1.0592669584996814e-01 -2.0172713472197946e-02  -5.9800862708378484e-02 -1.5511158220225885e-01 -1.1155450563902920e-02  -1.4262209184883676e-01 -6.8281640446817338e-02 -5.2504760772144415e-02  -4.3272016267630213e-02 -1.0112487184181687e-01 -1.2514580847817405e-01  -2.7530402738108310e-02 -9.4694965753759602e-02 -1.3429493363498682e-01  -3.1981278326249953e-02 -1.0624264902226360e-01 -1.2429757031209294e-01  -4.3282677296256150e-02 -1.1494355455408067e-01 -1.1258228292019326e-01  -2.7149506480678483e-02 -1.1570057212343519e-01 -1.1677529097068194e-01  -1.1832316044810767e-01 -3.4369113875163351e-02 -1.1215427966580549e-01  -1.1290193686609565e-01 -2.2818872973337154e-02 -1.2038541257673160e-01  -1.4866878131605010e-01 -5.1185520065595153e-02 -5.5116540041880484e-02  -1.0232403037048474e-01 -1.6285790816947549e-02 -1.3047897951494677e-01  -1.0592260730307379e-01 -3.3008578043066922e-02 -1.2430216361102947e-01  -1.1117221289412239e-01 -1.0263728526832045e-02 -1.2367537120889598e-01  -1.4534868983948232e-01 -4.5397544481559290e-02 -6.7624084767231307e-02  -1.4259202709413207e-01 -5.8335045021148134e-02 -6.3440792559544518e-02  -8.7371685220362608e-02 -1.3919898073598455e-01 -2.7386547792145281e-02  -9.3750755258104793e-02 -1.3208331734489998e-01 -3.9051027435382732e-02  -9.9894881952815054e-02 -1.3064186429977162e-01 -2.6719053819605539e-02  -8.2629281246490577e-02 -1.3762207936359994e-01 -4.4640244642207082e-02  -8.1555951206201904e-02 -1.281101