<?xml version="1.0"?>
<VTKFile type="UnstructuredGrid"  version="0.1"  >
<UnstructuredGrid>
<Piece  NumberOfPoints="597" NumberOfCells="2124">
<Points>
<DataArray  type="Float64"  NumberOfComponents="3"  format="ascii">0 0 0  1 0 0  0 1 0  0 0 1  0.09999999999981467 0 0  0.1999999999995579 0 0  0.2999999999992664 0 0  0.3999999999989749 0 0  0.4999999999986943 0 0  0.5999999999989468 0 0  0.69999999999921 0 0  0.7999999999994734 0 0  0.8999999999997368 0 0  0 0.09999999999981467 0  0 0.1999999999995579 0  0 0.2999999999992664 0  0 0.3999999999989749 0  0 0.4999999999986943 0  0 0.5999999999989468 0  0 0.69999999999921 0  0 0.7999999999994734 0  0 0.8999999999997368 0  0 0 0.09999999999981467  0 0 0.1999999999995579  0 0 0.2999999999992664  0 0 0.3999999999989749  0 0 0.4999999999986943  0 0 0.5999999999989468  0 0 0.69999999999921  0 0 0.7999999999994734  0 0 0.8999999999997368  0.9951847266502585 0.09801714055230534 0  0.9807852803038259 0.1950903225158687 0  0.9569403355024331 0.2902846780119318 0  0.9238795320817892 0.3826834334019886 0  0.8819212636904032 0.4713967380569389 0  0.8314696113679687 0.5555702344182949 0  0.7730104520841969 0.6343932857215511 0  0.7071067795733449 0.7071067827997501 0  0.634393282646958 0.7730104546074502 0  0.5555702316245595 0.8314696132346829 0  0.471396735522105 0.8819212650453002 0  0.3826834312318057 0.9238795329807084 0  0.2902846763682919 0.9569403360010258 0  0.1950903214145686 0.980785280522888 0  0.0980171400302339 0.995184726701678 0  0.9951847266502585 0 0.09801714055230534  0.9807852803038259 0 0.1950903225158687  0.9569403355024331 0 0.2902846780119318  0.9238795320817892 0 0.3826834334019886  0.8819212636904032 0 0.4713967380569389  0.8314696113679687 0 0.5555702344182949  0.7730104520841969 0 0.6343932857215511  0.7071067795733449 0 0.7071067827997501  0.634393282646958 0 0.7730104546074502  0.5555702316245595 0 0.8314696132346829  0.471396735522105 0 0.8819212650453002  0.3826834312318057 0 0.9238795329807084  0.2902846763682919 0 0.9569403360010258  0.1950903214145686 0 0.980785280522888  0.0980171400302339 0 0.995184726701678  0 0.9951847266502585 0.09801714055230534  0 0.9807852803038259 0.1950903225158687  0 0.9569403355024331 0.2902846780119318  0 0.9238795320817892 0.3826834334019886  0 0.8819212636904032 0.4713967380569389  0 0.8314696113679687 0.5555702344182949  0 0.7730104520841969 0.6343932857215511  0 0.7071067795733449 0.7071067827997501  0 0.634393282646958 0.7730104546074502  0 0.5555702316245595 0.8314696132346829  0 0.471396735522105 0.8819212650453002  0 0.3826834312318057 0.9238795329807084  0 0.2902846763682919 0.9569403360010258  0 0.1950903214145686 0.980785280522888  0 0.0980171400302339 0.995184726701678  0.09240154966779951 0 0.3658235692199516  0.07916357488785433 0 0.4469199030523527  0.1536813483092524 0 0.4301465381022301  0.2555379022644893 0 0.09556049568595243  0.1864593291765566 0 0.2034979771761179  0.301651764011142 0 0.1939053326038485  0.1881720785854029 0 0.3302588474155368  0.08403438330774521 0 0.6437268466185475  0.09138388892861184 0 0.5324072873297468  0.1930859140709486 0 0.7878139522981464  0.2165176696171426 0 0.900824597607195  0.292033522918994 0 0.8485491372975176  0.8037370491763215 0 0.0819245024222376  0.13014171782822 0 0.8868491929551598  0.08390174260734276 0 0.8253161934654943  0.0912526277304111 0 0.7448765232291942  0.8893622411880446 0 0.270275215225845  0.8593018882538136 0 0.1801969264281539  0.8024703672696746 0 0.2475353432181931  0.3476914857890963 0 0.4125368919261175  0.2997235777995208 0 0.3096876237048341  0.2490386282757974 0 0.412527605219857  0.4554126154120848 0 0.2518749964366375  0.39715257119151 0 0.3258159451822259  0.4883877361055989 0 0.3266984434363212  0.08966539318254355 0 0.2701713986717769  0.08377502767602918 0 0.164580120521203  0.3869558528229924 0 0.8037364723405749  0.1791913905804899 0 0.6945879747883159  0.1628348997531483 0 0.5951991143072877  0.2434219731662663 0 0.6106761106298939  0.3204481765543245 0 0.6201302437713152  0.2846206283417919 0 0.7159219267704837  0.3832252637688779 0 0.6893291551637116  0.1561812521325313 0 0.09527745928338882  0.8122499659106144 0 0.3273472587872134  0.2026260329838435 0 0.5147603927306801  0.3051207491780334 0 0.5196560474248884  0.5886190882535927 0 0.5879547877726188  0.5628286668856228 0 0.4841066442899339  0.4793970684942127 0 0.5419440173923771  0.4015076433379883 0 0.1595345792024606  0.4550663848726773 0 0.08400234057127416  0.3574412370957718 0 0.08514557536940835  0.4777735346904641 0 0.6420237002140541  0.5886050303809575 0 0.712791733722679  0.7032448955145116 0 0.5547060123784804  0.3710082806848816 0 0.2384994559961529  0.6343947712920404 0 0.1960314230465952  0.7205780420889929 0 0.2811987241304542  0.745939430962431 0 0.1834190974026157  0.6797060130425652 0 0.1027709852058109  0.5617353506566283 0 0.09368054426051139  0.5099863318045709 0 0.1736146479983669  0.767516113391133 0 0.4796577434100839  0.6547738563668709 0 0.4463662193850245  0.4595209371514753 0 0.4253249285837939  0.3873123962753185 0 0.4899626124422253  0.3876250349852705 0 0.5839247669697213  0.07755778095112512 0 0.07322480571131515  0.6662618639536104 0 0.6404224526940073  0.6281317226641706 0 0.5172795154653362  0.5467991787548994 0 0.2775110285514451  0.6382784164401777 0 0.32558335190295  0.7209625386664502 0 0.3760300013763025  0.4777689774710401 0 0.7650512433185178  0.8150026845526732 0 0.4083495007681245  0.5566757769165783 0 0.3852531587967231  0.08307535298787436 0 0.9466352209487393  0.9264479164039098 0 0.09196696687313166  0.2397696045481275 0 0.2516617606603849  0.08142379610690136 0.4255946222877561 0.9012432429190713  0.09186671735860186 0.5103340042487068 0.8550553843753256  0.9658493887414453 0.07517233868428744 0.2479598309495128  0.2588669386047153 0.4173196613385269 0.8711097567802347  0.349931687668115 0.4640670731596268 0.8137503091088829  0.2521091443082024 0.5198490772623717 0.8162094806026494  0.3381706165708041 0.3470207631890471 0.8747669541105296  0.4127313919422814 0.6915412096022421 0.5928098797483512  0.505094034203222 0.6002477622197614 0.6201472732847281  0.5053541985510116 0.6749299798537994 0.5376677936248502  0.5711974176563547 0.6081084457949028 0.5513053856218164  0.2265606352222516 0.3190644824037021 0.9202543858282597  0.1657801920411619 0.4763492767397394 0.8634861287110075  0.1656568208377873 0.3895779149708851 0.9059728836322062  0.501344556404584 0.2277556352228774 0.8347340932223356  0.4415367071350051 0.3068779784495727 0.8431318061816198  0.4059460944519277 0.2465220798785426 0.8800196773547647  0.6196876017566089 0.7450935593761555 0.2466229186537899  0.627698728320387 0.714123017011242 0.3098751733194038  0.6711018023358704 0.69515091935471 0.2576578549585624  0.5155953815884997 0.3094099022200982 0.7990162169147497  0.899989132227882 0.4289906012996104 0.07737328911389559  0.9382293875188548 0.3361973257557999 0.08183504475860598  0.2363183186651487 0.9697312279355392 0.06144101097726593  0.2993323950146074 0.9481462475789452 0.106858834434898  0.3101615066201264 0.2414838162804179 0.9195028038487859  0.4482922838801319 0.1771577048152243 0.8761559084079369  0.5266326972169642 0.1057746683003005 0.8434866458741044  0.4200451415729211 0.09020206018716082 0.9030092288448531  0.7623891105001969 0.5843698709159578 0.2779832695620105  0.7799115838824263 0.596929282445646 0.1881843592994147  0.7264879983305693 0.6504346235700518 0.2216979673856474  0.8178732076005444 0.5297083005156807 0.2247054353013872  0.08303734348179403 0.1922053315992417 0.9778353184930026  0.09408269694107538 0.07627092328721888 0.9926385003601306  0.1760515877647063 0.1196852712822077 0.9770779264130525  0.5576143975194612 0.3637809431371279 0.7461431558952143  0.4455986119305068 0.3912097319557027 0.8052309126385754  0.8060332204752099 0.4925189261569118 0.3282309474556054  0.7346451337886817 0.5624574787189985 0.379391765901261  0.642508165502269 0.2904084282097414 0.7091164940174894  0.7030254185009037 0.306273768786429 0.6418345888895255  0.6340141384684502 0.3769833468372913 0.6752108029567235  0.365152486570974 0.1655128603952953 0.9161163433728284  0.5962792236506059 0.542109883053058 0.5920877993497508  0.5485896415631504 0.5085733599282969 0.6636283167111371  0.5920678220815722 0.6464708649476155 0.4811768020483384  0.1878625042731283 0.2239323962641036 0.9563273296270713  0.1024217313722561 0.3092935774102874 0.9454349644028699  0.2334505071908325 0.06487815783086033 0.9702018786463037  0.4887206245964966 0.8674866792832123 0.09283863613924619  0.5742874233407752 0.8143734795796027 0.08360497084518105  0.9317006522490203 0.08389294215323394 0.3534060962343804  0.951181716421189 0.1590863374964037 0.2644709427669156  0.5455072387620422 0.7115493400103802 0.4428536882413925  0.9076276342048921 0.3867895805147213 0.1631131448807132  0.8905082493452895 0.127913990281725 0.4366154703376809  0.9096700297655037 0.1954608695184058 0.3664634844476816  0.4909557921631998 0.4638599224188366 0.7374255098075979  0.4820557633059458 0.5398846258057163 0.6900339353119844  0.4181956098394346 0.5173376920524271 0.7466419116905315  0.7346402167242096 0.09513558808181954 0.67175365414096  0.8078263850243458 0.09713596463829366 0.5813614504181416  0.2601336813274003 0.1475738587985683 0.954228706358363  0.3264256065230105 0.07648882390671821 0.9421230191559125  0.4590556119879899 0.7423895417623142 0.4879812633537003  0.6126112913498895 0.686574629053208 0.3915644065170771  0.6684671903139626 0.6091898762120843 0.4266606499250449  0.6977699223891808 0.542245960309553 0.4680667195357594  0.7549550374165268 0.4843931863016896 0.4420476586793638  0.07712060794257616 0.6883652307079324 0.7212528828247291  0.1027005936763692 0.7518617879958691 0.6512729380299598  0.9625479306552708 0.2091983633587219 0.1724457188778192  0.9825939555666527 0.1641265719497667 0.08701486576382911  0.964839163020035 0.2492141217550538 0.08353269432177644  0.97740960683
[...]
<PointData  Vectors="Solid displacement [m]"> 
<DataArray  type="Float64"  Name="Solid displacement [m]"  NumberOfComponents="3" format="ascii">0.0000000000000000e+00 0.0000000000000000e+00 0.0000000000000000e+00  -1.3039014516697969e-01 0.0000000000000000e+00 0.0000000000000000e+00  0.0000000000000000e+00 -1.3039077248886027e-01 0.0000000000000000e+00  0.0000000000000000e+00 0.0000000000000000e+00 -1.3039569788508540e-01  -9.4081958214397576e-03 0.0000000000000000e+00 0.0000000000000000e+00  -1.9082558780636454e-02 0.0000000000000000e+00 0.0000000000000000e+00  -2.9219662875011061e-02 0.0000000000000000e+00 0.0000000000000000e+00  -4.0070191322549124e-02 0.0000000000000000e+00 0.0000000000000000e+00  -5.1887981751276839e-02 0.0000000000000000e+00 0.0000000000000000e+00  -6.4852625191599261e-02 0.0000000000000000e+00 0.0000000000000000e+00  -7.9134461149618598e-02 0.0000000000000000e+00 0.0000000000000000e+00  -9.4826421763153965e-02 0.0000000000000000e+00 0.0000000000000000e+00  -1.1193899447015972e-01 0.0000000000000000e+00 0.0000000000000000e+00  0.0000000000000000e+00 -9.4096066182925864e-03 0.0000000000000000e+00  0.0000000000000000e+00 -1.9062951765139873e-02 0.0000000000000000e+00  0.0000000000000000e+00 -2.9199192578764115e-02 0.0000000000000000e+00  0.0000000000000000e+00 -4.0068497374800532e-02 0.0000000000000000e+00  0.0000000000000000e+00 -5.1884665471641528e-02 0.0000000000000000e+00  0.0000000000000000e+00 -6.4851917338617837e-02 0.0000000000000000e+00  0.0000000000000000e+00 -7.9131464119541958e-02 0.0000000000000000e+00  0.0000000000000000e+00 -9.4830284724995134e-02 0.0000000000000000e+00  0.0000000000000000e+00 -1.1195290435799317e-01 0.0000000000000000e+00  0.0000000000000000e+00 0.0000000000000000e+00 -9.4080590160106909e-03  0.0000000000000000e+00 0.0000000000000000e+00 -1.9075352298084075e-02  0.0000000000000000e+00 0.0000000000000000e+00 -2.9208155441364587e-02  0.0000000000000000e+00 0.0000000000000000e+00 -4.0063113435685624e-02  0.0000000000000000e+00 0.0000000000000000e+00 -5.1882234421972213e-02  0.0000000000000000e+00 0.0000000000000000e+00 -6.4845708728843057e-02  0.0000000000000000e+00 0.0000000000000000e+00 -7.9122420198543000e-02  0.0000000000000000e+00 0.0000000000000000e+00 -9.4821012217208414e-02  0.0000000000000000e+00 0.0000000000000000e+00 -1.1194794041961291e-01  -1.2976354146688596e-01 -1.2787958392323646e-02 0.0000000000000000e+00  -1.2788497531614770e-01 -2.5442625413659839e-02 0.0000000000000000e+00  -1.2477098123916587e-01 -3.7855692106436883e-02 0.0000000000000000e+00  -1.2045642732344088e-01 -4.9897352098199274e-02 0.0000000000000000e+00  -1.1498914737202717e-01 -6.1457712324680190e-02 0.0000000000000000e+00  -1.0842158402877035e-01 -7.2432216019811174e-02 0.0000000000000000e+00  -1.0078354506225780e-01 -8.2732552040754387e-02 0.0000000000000000e+00  -9.2196094471539883e-02 -9.2211796888300251e-02 0.0000000000000000e+00  -8.2702966709430045e-02 -1.0080700027617977e-01 0.0000000000000000e+00  -7.2422070694122986e-02 -1.0842573189354555e-01 0.0000000000000000e+00  -6.1475361813665232e-02 -1.1498291537302784e-01 0.0000000000000000e+00  -4.9880328600163573e-02 -1.2046351237069040e-01 0.0000000000000000e+00  -3.7853171816630234e-02 -1.2475901676390454e-01 0.0000000000000000e+00  -2.5438011196084912e-02 -1.2788003771243930e-01 0.0000000000000000e+00  -1.2793719734162094e-02 -1.2976749380279606e-01 0.0000000000000000e+00  -1.2976769343854391e-01 0.0000000000000000e+00 -1.2785927809966966e-02  -1.2789222608141551e-01 0.0000000000000000e+00 -2.5421956971137395e-02  -1.2477407003352943e-01 0.0000000000000000e+00 -3.7861484958331332e-02  -1.2048170452807765e-01 0.0000000000000000e+00 -4.9876505208046262e-02  -1.1500215220133674e-01 0.0000000000000000e+00 -6.1484379532867221e-02  -1.0840897244691802e-01 0.0000000000000000e+00 -7.2472450784679579e-02  -1.0078570341671175e-01 0.0000000000000000e+00 -8.2720955739900404e-02  -9.2217018298258915e-02 0.0000000000000000e+00 -9.2186036338329572e-02  -8.2697528193675235e-02 0.0000000000000000e+00 -1.0082115239389425e-01  -7.2424940019256312e-02 0.0000000000000000e+00 -1.0841393104741000e-01  -6.1478125093889176e-02 0.0000000000000000e+00 -1.1498124397521066e-01  -4.9915511041819370e-02 0.0000000000000000e+00 -1.2046833621646590e-01  -3.7852011345867125e-02 0.0000000000000000e+00 -1.2478865771851212e-01  -2.5401305139122116e-02 0.0000000000000000e+00 -1.2789451668389534e-01  -1.2787044996512805e-02 0.0000000000000000e+00 -1.2977443254319557e-01  0.0000000000000000e+00 -1.2975837868333009e-01 -1.2823429474791981e-02  0.0000000000000000e+00 -1.2787064388637628e-01 -2.5445925367583118e-02  0.0000000000000000e+00 -1.2474472114292230e-01 -3.7883421661062296e-02  0.0000000000000000e+00 -1.2045380370461566e-01 -4.9886737969963388e-02  0.0000000000000000e+00 -1.1497766790740135e-01 -6.1462019641512315e-02  0.0000000000000000e+00 -1.0842959622698575e-01 -7.2401254177029084e-02  0.0000000000000000e+00 -1.0078149494972560e-01 -8.2724415438500065e-02  0.0000000000000000e+00 -9.2209245558530537e-02 -9.2176191528404380e-02  0.0000000000000000e+00 -8.2716735099980065e-02 -1.0077892206547719e-01  0.0000000000000000e+00 -7.2423980444876482e-02 -1.0841408550484367e-01  0.0000000000000000e+00 -6.1462231940237047e-02 -1.1498526267654456e-01  0.0000000000000000e+00 -4.9878097433038122e-02 -1.2046463793051368e-01  0.0000000000000000e+00 -3.7848834714277559e-02 -1.2476882260965973e-01  0.0000000000000000e+00 -2.5455858442656829e-02 -1.2788431688366042e-01  0.0000000000000000e+00 -1.2810797193625073e-02 -1.2976807216354719e-01  -9.1959563273220687e-03 0.0000000000000000e+00 -3.6385856580911924e-02  -8.0879113791153048e-03 0.0000000000000000e+00 -4.5591490729572810e-02  -1.5695876786220652e-02 0.0000000000000000e+00 -4.3928807595508018e-02  -2.4734031207182799e-02 0.0000000000000000e+00 -9.2440256817092649e-03  -1.8059856181861379e-02 0.0000000000000000e+00 -1.9702332829263747e-02  -2.9845092858399445e-02 0.0000000000000000e+00 -1.9177960793291520e-02  -1.8733665885876192e-02 0.0000000000000000e+00 -3.2882118378126775e-02  -9.2873304156034231e-03 0.0000000000000000e+00 -7.1094542163630203e-02  -9.6412639545608182e-03 0.0000000000000000e+00 -5.6119606934812084e-02  -2.3014459554461283e-02 0.0000000000000000e+00 -9.3881349252927931e-02  -2.7273525817370463e-02 0.0000000000000000e+00 -1.1347693215965719e-01  -3.6276983014540611e-02 0.0000000000000000e+00 -1.0541692579976220e-01  -9.5631957388476463e-02 0.0000000000000000e+00 -9.7443624854639498e-03  -1.6163418757606768e-02 0.0000000000000000e+00 -1.1011491396762217e-01  -1.0093554621945071e-02 0.0000000000000000e+00 -9.9225842352791457e-02  -1.0568794244163189e-02 0.0000000000000000e+00 -8.6214691074061975e-02  -1.1219009148618267e-01 0.0000000000000000e+00 -3.4096505553088005e-02  -1.0575483257419814e-01 0.0000000000000000e+00 -2.2178256798425455e-02  -9.6957689710459760e-02 0.0000000000000000e+00 -2.9911617947627998e-02  -3.6648535743763977e-02 0.0000000000000000e+00 -4.3470601534515832e-02  -3.0345236857202310e-02 0.0000000000000000e+00 -3.1344311783904726e-02  -2.5670371368042580e-02 0.0000000000000000e+00 -4.2513144176792882e-02  -4.7632769198538809e-02 0.0000000000000000e+00 -2.6352150630104248e-02  -4.1433380734320881e-02 0.0000000000000000e+00 -3.3991457093330145e-02  -5.2506631247675482e-02 0.0000000000000000e+00 -3.5123732737428005e-02  -8.6959873976464735e-03 0.0000000000000000e+00 -2.6213606027174475e-02  -7.9700212326684425e-03 0.0000000000000000e+00 -1.5655787037055318e-02  -4.7945321429372731e-02 0.0000000000000000e+00 -9.9582086117313187e-02  -2.0419504109412883e-02 0.0000000000000000e+00 -7.9153143267032836e-02  -1.7730113081194453e-02 0.0000000000000000e+00 -6.4802095651573036e-02  -2.6986408774067921e-02 0.0000000000000000e+00 -6.7694786218584740e-02  -3.6189186291275904e-02 0.0000000000000000e+00 -7.0037926045953866e-02  -3.3261675956428788e-02 0.0000000000000000e+00 -8.3660686517553567e-02  -4.5174305924491065e-02 0.0000000000000000e+00 -8.1261364562089031e-02  -1.4856149982774028e-02 0.0000000000000000e+00 -9.0612740421247492e-03  -9.9856964989717412e-02 0.0000000000000000e+00 -4.0249316273894144e-02  -2.1471217221806033e-02 0.0000000000000000e+00 -5.4547910423494890e-02  -3.3016479345103322e-02 0.0000000000000000e+00 -5.6222646055982949e-02  -7.0849543800355866e-02 0.0000000000000000e+00 -7.0773472268841120e-02  -6.4899218813469522e-02 0.0000000000000000e+00 -5.5824047396795522e-02  -5.4792989698981644e-02 0.0000000000000000e+00 -6.1937119591829147e-02  -4.0648384581429470e-02 0.0000000000000000e+00 -1.6147851908627067e-02  -4.6571109498805573e-02 0.0000000000000000e+00 -8.5980955053358583e-03  -3.5452565975315112e-02 0.0000000000000000e+00 -8.4442156681720140e-03  -5.6636310399579462e-02 0.0000000000000000e+00 -7.6106268514242376e-02  -7.4070040035556228e-02 0.0000000000000000e+00 -8.9700996331321697e-02  -8.7280487717155394e-02 0.0000000000000000e+00 -6.8855926596012196e-02  -3.7680441756591299e-02 0.0000000000000000e+00 -2.4226061604706670e-02  -7.0542803071835275e-02 0.0000000000000000e+00 -2.1801125841969842e-02  -8.4330816472496545e-02 0.0000000000000000e+00 -3.2918852966915803e-02  -8.7078653527705829e-02 0.0000000000000000e+00 -2.1412175045643932e-02  -7.6395022664892523e-02 0.0000000000000000e+00 -1.1548967949962069e-02  -5.9936918577005664e-02 0.0000000000000000e+00 -9.9932802971776490e-03  -5.3733576294436813e-02 0.0000000000000000e+00 -1.8290991526315567e-02  -9.5699817181873245e-02 0.0000000000000000e+00 -5.9806241907071601e-02  -7.7330138168722889e-02 0.0000000000000000e+00 -5.2713883476975393e-02  -5.0233748168426684e-02 0.0000000000000000e+00 -4.6497565276564422e-02  -4.2315631974161785e-02 0.0000000000000000e+00 -5.3514727412132410e-02  -4.3837114991101905e-02 0.0000000000000000e+00 -6.6032146144955797e-02  -7.3077328995796156e-03 0.0000000000000000e+00 -6.8956593669212713e-03  -8.3825958356950295e-02 0.0000000000000000e+00 -8.0581182313301650e-02  -7.4940667470391478e-02 0.0000000000000000e+00 -6.1719740267576692e-02  -5.9441578092113291e-02 0.0000000000000000e+00 -3.0173525284351015e-02  -7.2714010278518204e-02 0.0000000000000000e+00 -3.7092728690405974e-02  -8.5999532016950903e-02 0.0000000000000000e+00 -4.4857176004209187e-02  -5.9470252766920903e-02 0.0000000000000000e+00 -9.5240011656041679e-02  -1.0194059386508592e-01 0.0000000000000000e+00 -5.1076238288762323e-02  -6.2263049172526924e-02 0.0000000000000000e+00 -4.3091217667125384e-02  -1.0587694732241183e-02 0.0000000000000000e+00 -1.2061064010024422e-01  -1.1695415380964257e-01 0.0000000000000000e+00 -1.1608264733986974e-02  -2.3653838257214958e-02 0.0000000000000000e+00 -2.4814819431781644e-02  -1.0626978272300332e-02 -5.5475132554685606e-02 -1.1751370156319493e-01  -1.1983539257644130e-02 -6.6532772730239276e-02 -1.1148529989627577e-01  -1.2594080040023012e-01 -9.8136053010541048e-03 -3.2341829006356883e-02  -3.3766166520571392e-02 -5.4404326981127911e-02 -1.1354261506684468e-01  -4.5593979468558928e-02 -6.0475683204937888e-02 -1.0608744345175608e-01  -3.2887800858595814e-02 -6.7753842159923403e-02 -1.0640242671004026e-01  -4.4079627598730547e-02 -4.5259717000678254e-02 -1.1401971515900021e-01  -5.3801089575849628e-02 -9.0135020713129704e-02 -7.7280097202924669e-02  -6.5813847025851246e-02 -7.8269694371200932e-02 -8.0840693414312145e-02  -6.5853118758255808e-02 -8.7988067705106934e-02 -7.0108840156147129e-02  -7.4439255741697727e-02 -7.9285570185826756e-02 -7.1888513823958111e-02  -2.9544382045345877e-02 -4.1599053586427216e-02 -1.1996520830202240e-01  -2.1643200075015970e-02 -6.2095500358192335e-02 -1.1257283340212212e-01  -2.1613684767261693e-02 -5.0781924639124273e-02 -1.1811507459214354e-01  -6.5361038222027212e-02 -2.9702738756442901e-02 -1.0882965617245720e-01  -5.7532695531149231e-02 -4.0040749254787240e-02 -1.0991624786745120e-01  -5.2903211012511123e-02 -3.2176798429817001e-02 -1.1473261395144965e-01  -8.0788780160988782e-02 -9.7152887088763129e-02 -3.2162732718583727e-02  -8.1829828749799063e-02 -9.3105915584558663e-02 -4.0430247680100700e-02  -8.7499584410999587e-02 -9.0631338784294843e-02 -3.3601686196927813e-02  -6.7201558323607635e-02 -4.0363271049866929e-02 -1.0417103993720961e-01  -1.1733808629216104e-01 -5.5930466046109607e-02 -1.0102222568829970e-02  -1.2232464775155781e-01 -4.3842236816069302e-02 -1.0679267469597841e-02  -3.0820419580047866e-02 -1.2643392201250481e-01 -8.0265933528806451e-03  -3.9023485611013313e-02 -1.2361468065132694e-01 -1.3966446216904802e-02  -4.0420744634022378e-02 -3.1518012916577326e-02 -1.1987296281318922e-01  -5.8455022307187202e-02 -2.3108590720551776e-02 -1.1424190096444833e-01  -6.8657119217061899e-02 -1.3788396821861858e-02 -1.0998571072225269e-01  -5.4786474714353710e-02 -1.1765160421189852e-02 -1.1774685388762714e-01  -9.9391478575187153e-02 -7.6174070498319701e-02 -3.6276460985336566e-02  -1.0168437536886625e-01 -7.7830104259790200e-02 -2.4559514913207472e-02  -9.4717316066882704e-02 -8.4802824360854165e-02 -2.8918480427748375e-02  -1.0663136467270624e-01 -6.9051127576285190e-02 -2.9322641178894389e-02  -1.0838594522979538e-02 -2.5082439320339590e-02 -1.2748957143938638e-01  -1.2271626874933573e-02 -9.9665927442622280e-03 -1.2943526206873596e-01  -2.2935765846021090e-02 -1.5629669516842599e-02 -1.2740092144286919e-01  -7.2677972543706532e-02 -4.7440284712944064e-02 -9.7280469352237428e-02  -5.8066370410814708e-02 -5.1003135400243170e-02 -1.0497823669159836e-01  -1.0506516027241966e-01 -6.4218814668494370e-02 -4.2808324186776915e-02  -9.5775710940817119e-02 -7.3319843580964342e-02 -4.9458037145394609e-02  -8.3760194617877051e-02 -3.7874439618178039e-02 -9.2451940534783283e-02  -9.1646219861565389e-02 -3.9947196346909901e-02 -8.3680247166732932e-02  -8.2653989845255932e-02 -4.9151220924406429e-02 -8.8029527345342640e-02  -4.7594820705727604e-02 -2.1603173221245772e-02 -1.1944955479256522e-01  -7.7732515897401100e-02 -7.0676006282702361e-02 -7.7191197656711050e-02  -7.1512213043522843e-02 -6.6322326871904230e-02 -8.6519945609497564e-02  -7.7178362155647301e-02 -8.4287494954185901e-02 -6.2741413859465758e-02  -2.4491126827100088e-02 -2.9226094244724519e-02 -1.2467337464439657e-01  -1.3366413039491961e-02 -4.0325901758807438e-02 -1.2325964028280317e-01  -3.0431320906124174e-02 -8.4755012702968195e-03 -1.2652080024268150e-01  -6.3714754940541948e-02 -1.1311333048629904e-01 -1.2115737340938305e-02  -7.4877090896860468e-02 -1.0619146305558554e-01 -1.0901978598038842e-02  -1.2148615666284208e-01 -1.0967392384424013e-02 -4.6060772425554695e-02  -1.2400627349393420e-01 -2.0754988207810725e-02 -3.4499817636794265e-02  -7.1102561873334677e-02 -9.2768499488287928e-02 -5.7748786160387880e-02  -1.1833004459127237e-01 -5.0433994832546208e-02 -2.1271657849717403e-02  -1.1612280616904375e-01 -1.6703723960082677e-02 -5.6915595350188961e-02  -1.1861048625228077e-01 -2.5488423725452739e-02 -4.7758221935465951e-02  -6.3995417287934869e-02 -6.0462355578990580e-02 -9.6148270490275342e-02  -6.2822123841128466e-02 -7.0399562584125247e-02 -8.9952293210569315e-02  -5.4494119762927042e-02 -6.7452331632971332e-02 -9.7334290555521050e-02  -9.5790745036559710e-02 -1.2409721353116399e-02 -8.7580535944220023e-02  -1.0532318428886757e-01 -1.2668991128248583e-02 -7.5824232176210288e-02  -3.3920435586555810e-02 -1.9283781765632280e-02 -1.2441022648905227e-01  -4.2567673990838925e-02 -9.9972790656587002e-03 -1.2285123918867645e-01  -5.9817520714767015e-02 -9.6779889034973893e-02 -6.3638469120983879e-02  -7.9865845756456846e-02 -8.9504117197257288e-02 -5.1062190430368769e-02  -8.7141450856268163e-02 -7.9430356153176299e-02 -5.5616868431224695e-02  -9.0975908786754683e-02 -7.0681851822906427e-02 -6.1029412696985787e-02  -9.8419033658485158e-02 -6.3147195890916483e-02 -5.7631698229539507e-02  -1.0053924234600593e-02 -8.9759060106810631e-02 -9.4034629153795693e-02  -1.3402719682589494e-02 -9.8034181638724474e-02 -8.4901690186319628e-02  -1.2549463319462845e-01 -2.7277305358058602e-02 -2.2495978769879875e-02  -1.2811986982656834e-01 -2.1399330191493090e-02 -1.1352865991148936e-02  -1.2579821398014018e-01 -3.2500022660894037e-02 -1.0900530145727878e-02  -1.2744164975011027e-01 -1.4766810389656226e-02 -2.3271731345777893e-02  -9.9568323416289337e-02 -4.0770097255431188e-02 -7.3627092754952134e-02  -9.1150546584882267e-02 -5.1088897641163651e-02 -7.7960234753676000e-02  -1.2140439063489865e-01 -3.3194191669073066e-02 -3.4023861986034527e-02  -9.1316691250639802e-03 -1.0546739527761297e-01 -7.6118932722381211e-02  -2.2619205195217054e-02 -1.0513266959289407e-01 -7.3703984760378330e-02  -4.4246577982609288e-02 -7.3260712038144910e-02 -9.8323064209125038e-02  -8.9152858887406844e-02 -6.3157679803131903e-02 -7.1129330508396191e-02  -8.1097320124334543e-02 -5.9908098158589877e-02 -8.2649310043646673e-02  -1.4812634841523342e-02 -1.1216774074217184e-01 -6.4775254577265448e-02  -2.9060356977553426e-02 -1.1085740271634950e-01 -6.2142354540671234e-02  -2.1961085298538092e-02 -1.1713746034819186e-01 -5.2833899650737225e-02  -8.3155863788138565e-02 -7.4885143861957632e-02 -6.6894355285138665e-02  -7.4400132873758865e-02 -5.7261485526222192e-02 -9.0457848215568737e-02  -1.2247630628551684e-01 -3.8797989705377359e-02 -2.2192137552659991e-02  -1.5644126786693479e-02 -1.2269994034984290e-01 -4.1165473222955336e-02  -2.9139152440860343e-02 -1.2044275572356258e-01 -4.0491896479466348e-02  -2.3396574711569494e-02 -1.2479742971706430e-01 -2.9537890828003822e-02  -3.8443399442341583e-02 -1.2136180292837329e-01 -2.8061237913698214e-02  -3.4493728708079513e-02 -1.0378436695985885e-01 -7.0966755477860188e-02  -2.8401226731911113e-02 -9.7613539447893236e-02 -8.1618224378294621e-02  -1.1267569963079982e-01 -6.2020357790758096e-02 -2.1328676635897686e-02  -1.1254049792092560e-01 -5.7739167842963394e-02 -3.1604097028643550e-02  -1.1038647951901430e-01 -1.9771246987248425e-02 -6.6545251797070104e-02  -1.1264458513333842e-01 -2.7867135594907371e-02 -5.9463745102918207e-02  -1.0541078093962514e-01 -2.8116220422155922e-02 -7.1402765501728138e-02  -1.0766200419594864e-01 -4.0746895702885581e-02 -6.1223994985690505e-02  -1.0648994957555057e-01 -7.3185865918289780e-02 -1.7467684514395374e-02  -1.1128116749634806e-01 -6.7249494471000426e-02 -9.7157501477642180e-03  -1.0565807568789748e-01 -7.5995978910152986e-02 -8.0256455082679482e-03  -5.4345380494968398e-02 -7.8050726085144267e-02 -8.9138693296533844e-02  -1.1799536792837995e-01 -4.5105729774846136e-02 -3.2270960842562466e-02  -9.9393200202872692e-02 -8.2906458942549374e-02 -1.5794678611958102e-02  -4.6777914155154789e-02 -1.2138779070763964e-01 -8.7425102236329474e-03  -1.1159791466286693e-01 -5.3446073829076048e-02 -4.1094504511753407e-02  -3.3882501717212424e-02 -7.9116164595214006e-02 -9.7915221183271617e-02  -2.1567903707431904e-02 -7.4086332081495995e-02 -1.0509191510997648e-01  -2.5049993516148658e-02 -8.3137073937148823e-02 -9.7259502770902895e-02  -3.3882504721991058e-02 -8.9928295809579478e-02 -8.8090960534146681e-02  -2.1262681950142550e-02 -9.0543044818070434e-02 -9.1365007622713712e-02  -9.2575673339484271e-02 -2.6911004516653944e-02 -8.7764617046072427e-02  -8.8354156304770115e-02 -1.7874879775926715e-02 -9.4206311067524862e-02  -1.1634808218755489e-01 -4.0056536154528546e-02 -4.3129416267030964e-02  -8.0058095111615282e-02 -1.2746007340135123e-02 -1.0213007849281816e-01  -8.2886467327981564e-02 -2.5851726011684849e-02 -9.7265988627745117e-02  -8.7009953062250747e-02 -8.0423170949310840e-03 -9.6794708304361293e-02  -1.1374454675481045e-01 -3.5528050730328060e-02 -5.2920464387543970e-02  -1.1158006928409436e-01 -4.5669982931097225e-02 -4.9658938633312867e-02  -6.8362084234087017e-02 -1.0893237622021111e-01 -2.1444874978084446e-02  -7.3349150739029506e-02 -1.0336412881873180e-01 -3.0576588941756105e-02  -7.8174093480578563e-02 -1.0223193533794413e-01 -2.0920586600192283e-02  -6.4644563757643408e-02 -1.0769031356288337e-01 -3.4946840192062900e-02  -6.3802741714929265e-02 -1.002372