<?xml version="1.0"?>
<VTKFile type="UnstructuredGrid"  version="0.1"  >
<UnstructuredGrid>
<Piece  NumberOfPoints="597" NumberOfCells="2124">
<Points>
<DataArray  type="Float64"  NumberOfComponents="3"  format="ascii">0 0 0  1 0 0  0 1 0  0 0 1  0.09999999999981467 0 0  0.1999999999995579 0 0  0.2999999999992664 0 0  0.3999999999989749 0 0  0.4999999999986943 0 0  0.5999999999989468 0 0  0.69999999999921 0 0  0.7999999999994734 0 0  0.8999999999997368 0 0  0 0.09999999999981467 0  0 0.1999999999995579 0  0 0.2999999999992664 0  0 0.3999999999989749 0  0 0.4999999999986943 0  0 0.5999999999989468 0  0 0.69999999999921 0  0 0.7999999999994734 0  0 0.8999999999997368 0  0 0 0.09999999999981467  0 0 0.1999999999995579  0 0 0.2999999999992664  0 0 0.3999999999989749  0 0 0.4999999999986943  0 0 0.5999999999989468  0 0 0.69999999999921  0 0 0.7999999999994734  0 0 0.8999999999997368  0.9951847266502585 0.09801714055230534 0  0.9807852803038259 0.1950903225158687 0  0.9569403355024331 0.2902846780119318 0  0.9238795320817892 0.3826834334019886 0  0.8819212636904032 0.4713967380569389 0  0.8314696113679687 0.5555702344182949 0  0.7730104520841969 0.6343932857215511 0  0.7071067795733449 0.7071067827997501 0  0.634393282646958 0.7730104546074502 0  0.5555702316245595 0.8314696132346829 0  0.471396735522105 0.8819212650453002 0  0.3826834312318057 0.9238795329807084 0  0.2902846763682919 0.9569403360010258 0  0.1950903214145686 0.980785280522888 0  0.0980171400302339 0.995184726701678 0  0.9951847266502585 0 0.09801714055230534  0.9807852803038259 0 0.1950903225158687  0.9569403355024331 0 0.2902846780119318  0.9238795320817892 0 0.3826834334019886  0.8819212636904032 0 0.4713967380569389  0.8314696113679687 0 0.5555702344182949  0.7730104520841969 0 0.6343932857215511  0.7071067795733449 0 0.7071067827997501  0.634393282646958 0 0.7730104546074502  0.5555702316245595 0 0.8314696132346829  0.471396735522105 0 0.8819212650453002  0.3826834312318057 0 0.9238795329807084  0.2902846763682919 0 0.9569403360010258  0.1950903214145686 0 0.980785280522888  0.0980171400302339 0 0.995184726701678  0 0.9951847266502585 0.09801714055230534  0 0.9807852803038259 0.1950903225158687  0 0.9569403355024331 0.2902846780119318  0 0.9238795320817892 0.3826834334019886  0 0.8819212636904032 0.4713967380569389  0 0.8314696113679687 0.5555702344182949  0 0.7730104520841969 0.6343932857215511  0 0.7071067795733449 0.7071067827997501  0 0.634393282646958 0.7730104546074502  0 0.5555702316245595 0.8314696132346829  0 0.471396735522105 0.8819212650453002  0 0.3826834312318057 0.9238795329807084  0 0.2902846763682919 0.9569403360010258  0 0.1950903214145686 0.980785280522888  0 0.0980171400302339 0.995184726701678  0.09240154966779951 0 0.3658235692199516  0.07916357488785433 0 0.4469199030523527  0.1536813483092524 0 0.4301465381022301  0.2555379022644893 0 0.09556049568595243  0.1864593291765566 0 0.2034979771761179  0.301651764011142 0 0.1939053326038485  0.1881720785854029 0 0.3302588474155368  0.08403438330774521 0 0.6437268466185475  0.09138388892861184 0 0.5324072873297468  0.1930859140709486 0 0.7878139522981464  0.2165176696171426 0 0.900824597607195  0.292033522918994 0 0.8485491372975176  0.8037370491763215 0 0.0819245024222376  0.13014171782822 0 0.8868491929551598  0.08390174260734276 0 0.8253161934654943  0.0912526277304111 0 0.7448765232291942  0.8893622411880446 0 0.270275215225845  0.8593018882538136 0 0.1801969264281539  0.8024703672696746 0 0.2475353432181931  0.3476914857890963 0 0.4125368919261175  0.2997235777995208 0 0.3096876237048341  0.2490386282757974 0 0.412527605219857  0.4554126154120848 0 0.2518749964366375  0.39715257119151 0 0.3258159451822259  0.4883877361055989 0 0.3266984434363212  0.08966539318254355 0 0.2701713986717769  0.08377502767602918 0 0.164580120521203  0.3869558528229924 0 0.8037364723405749  0.1791913905804899 0 0.6945879747883159  0.1628348997531483 0 0.5951991143072877  0.2434219731662663 0 0.6106761106298939  0.3204481765543245 0 0.6201302437713152  0.2846206283417919 0 0.7159219267704837  0.3832252637688779 0 0.6893291551637116  0.1561812521325313 0 0.09527745928338882  0.8122499659106144 0 0.3273472587872134  0.2026260329838435 0 0.5147603927306801  0.3051207491780334 0 0.5196560474248884  0.5886190882535927 0 0.5879547877726188  0.5628286668856228 0 0.4841066442899339  0.4793970684942127 0 0.5419440173923771  0.4015076433379883 0 0.1595345792024606  0.4550663848726773 0 0.08400234057127416  0.3574412370957718 0 0.08514557536940835  0.4777735346904641 0 0.6420237002140541  0.5886050303809575 0 0.712791733722679  0.7032448955145116 0 0.5547060123784804  0.3710082806848816 0 0.2384994559961529  0.6343947712920404 0 0.1960314230465952  0.7205780420889929 0 0.2811987241304542  0.745939430962431 0 0.1834190974026157  0.6797060130425652 0 0.1027709852058109  0.5617353506566283 0 0.09368054426051139  0.5099863318045709 0 0.1736146479983669  0.767516113391133 0 0.4796577434100839  0.6547738563668709 0 0.4463662193850245  0.4595209371514753 0 0.4253249285837939  0.3873123962753185 0 0.4899626124422253  0.3876250349852705 0 0.5839247669697213  0.07755778095112512 0 0.07322480571131515  0.6662618639536104 0 0.6404224526940073  0.6281317226641706 0 0.5172795154653362  0.5467991787548994 0 0.2775110285514451  0.6382784164401777 0 0.32558335190295  0.7209625386664502 0 0.3760300013763025  0.4777689774710401 0 0.7650512433185178  0.8150026845526732 0 0.4083495007681245  0.5566757769165783 0 0.3852531587967231  0.08307535298787436 0 0.9466352209487393  0.9264479164039098 0 0.09196696687313166  0.2397696045481275 0 0.2516617606603849  0.08142379610690136 0.4255946222877561 0.9012432429190713  0.09186671735860186 0.5103340042487068 0.8550553843753256  0.9658493887414453 0.07517233868428744 0.2479598309495128  0.2588669386047153 0.4173196613385269 0.8711097567802347  0.349931687668115 0.4640670731596268 0.8137503091088829  0.2521091443082024 0.5198490772623717 0.8162094806026494  0.3381706165708041 0.3470207631890471 0.8747669541105296  0.4127313919422814 0.6915412096022421 0.5928098797483512  0.505094034203222 0.6002477622197614 0.6201472732847281  0.5053541985510116 0.6749299798537994 0.5376677936248502  0.5711974176563547 0.6081084457949028 0.5513053856218164  0.2265606352222516 0.3190644824037021 0.9202543858282597  0.1657801920411619 0.4763492767397394 0.8634861287110075  0.1656568208377873 0.3895779149708851 0.9059728836322062  0.501344556404584 0.2277556352228774 0.8347340932223356  0.4415367071350051 0.3068779784495727 0.8431318061816198  0.4059460944519277 0.2465220798785426 0.8800196773547647  0.6196876017566089 0.7450935593761555 0.2466229186537899  0.627698728320387 0.714123017011242 0.3098751733194038  0.6711018023358704 0.69515091935471 0.2576578549585624  0.5155953815884997 0.3094099022200982 0.7990162169147497  0.899989132227882 0.4289906012996104 0.07737328911389559  0.9382293875188548 0.3361973257557999 0.08183504475860598  0.2363183186651487 0.9697312279355392 0.06144101097726593  0.2993323950146074 0.9481462475789452 0.106858834434898  0.3101615066201264 0.2414838162804179 0.9195028038487859  0.4482922838801319 0.1771577048152243 0.8761559084079369  0.5266326972169642 0.1057746683003005 0.8434866458741044  0.4200451415729211 0.09020206018716082 0.9030092288448531  0.7623891105001969 0.5843698709159578 0.2779832695620105  0.7799115838824263 0.596929282445646 0.1881843592994147  0.7264879983305693 0.6504346235700518 0.2216979673856474  0.8178732076005444 0.5297083005156807 0.2247054353013872  0.08303734348179403 0.1922053315992417 0.9778353184930026  0.09408269694107538 0.07627092328721888 0.9926385003601306  0.1760515877647063 0.1196852712822077 0.9770779264130525  0.5576143975194612 0.3637809431371279 0.7461431558952143  0.4455986119305068 0.3912097319557027 0.8052309126385754  0.8060332204752099 0.4925189261569118 0.3282309474556054  0.7346451337886817 0.5624574787189985 0.379391765901261  0.642508165502269 0.2904084282097414 0.7091164940174894  0.7030254185009037 0.306273768786429 0.6418345888895255  0.6340141384684502 0.3769833468372913 0.6752108029567235  0.365152486570974 0.1655128603952953 0.9161163433728284  0.5962792236506059 0.542109883053058 0.5920877993497508  0.5485896415631504 0.5085733599282969 0.6636283167111371  0.5920678220815722 0.6464708649476155 0.4811768020483384  0.1878625042731283 0.2239323962641036 0.9563273296270713  0.1024217313722561 0.3092935774102874 0.9454349644028699  0.2334505071908325 0.06487815783086033 0.9702018786463037  0.4887206245964966 0.8674866792832123 0.09283863613924619  0.5742874233407752 0.8143734795796027 0.08360497084518105  0.9317006522490203 0.08389294215323394 0.3534060962343804  0.951181716421189 0.1590863374964037 0.2644709427669156  0.5455072387620422 0.7115493400103802 0.4428536882413925  0.9076276342048921 0.3867895805147213 0.1631131448807132  0.8905082493452895 0.127913990281725 0.4366154703376809  0.9096700297655037 0.1954608695184058 0.3664634844476816  0.4909557921631998 0.4638599224188366 0.7374255098075979  0.4820557633059458 0.5398846258057163 0.6900339353119844  0.4181956098394346 0.5173376920524271 0.7466419116905315  0.7346402167242096 0.09513558808181954 0.67175365414096  0.8078263850243458 0.09713596463829366 0.5813614504181416  0.2601336813274003 0.1475738587985683 0.954228706358363  0.3264256065230105 0.07648882390671821 0.9421230191559125  0.4590556119879899 0.7423895417623142 0.4879812633537003  0.6126112913498895 0.686574629053208 0.3915644065170771  0.6684671903139626 0.6091898762120843 0.4266606499250449  0.6977699223891808 0.542245960309553 0.4680667195357594  0.7549550374165268 0.4843931863016896 0.4420476586793638  0.07712060794257616 0.6883652307079324 0.7212528828247291  0.1027005936763692 0.7518617879958691 0.6512729380299598  0.9625479306552708 0.2091983633587219 0.1724457188778192  0.9825939555666527 0.1641265719497667 0.08701486576382911  0.964839163020035 0.2492141217550538 0.08353269432177644  0.97740960683
[...]
<PointData  Vectors="Solid displacement [m]"> 
<DataArray  type="Float64"  Name="Solid displacement [m]"  NumberOfComponents="3" format="ascii">0.0000000000000000e+00 0.0000000000000000e+00 0.0000000000000000e+00  -1.4359685728200752e-01 0.0000000000000000e+00 0.0000000000000000e+00  0.0000000000000000e+00 -1.4359594201897904e-01 0.0000000000000000e+00  0.0000000000000000e+00 0.0000000000000000e+00 -1.4360145607156471e-01  -1.1849119497683715e-02 0.0000000000000000e+00 0.0000000000000000e+00  -2.3906959133029121e-02 0.0000000000000000e+00 0.0000000000000000e+00  -3.6320596299103267e-02 0.0000000000000000e+00 0.0000000000000000e+00  -4.9264166015238871e-02 0.0000000000000000e+00 0.0000000000000000e+00  -6.2895676752798238e-02 0.0000000000000000e+00 0.0000000000000000e+00  -7.7309834208177997e-02 0.0000000000000000e+00 0.0000000000000000e+00  -9.2585090794663635e-02 0.0000000000000000e+00 0.0000000000000000e+00  -1.0874520013251099e-01 0.0000000000000000e+00 0.0000000000000000e+00  -1.2577068364559296e-01 0.0000000000000000e+00 0.0000000000000000e+00  0.0000000000000000e+00 -1.1851088429829799e-02 0.0000000000000000e+00  0.0000000000000000e+00 -2.3893520382097362e-02 0.0000000000000000e+00  0.0000000000000000e+00 -3.6305800242086406e-02 0.0000000000000000e+00  0.0000000000000000e+00 -4.9261329054420919e-02 0.0000000000000000e+00  0.0000000000000000e+00 -6.2892039709607925e-02 0.0000000000000000e+00  0.0000000000000000e+00 -7.7308056709230619e-02 0.0000000000000000e+00  0.0000000000000000e+00 -9.2582373477755442e-02 0.0000000000000000e+00  0.0000000000000000e+00 -1.0874754376779586e-01 0.0000000000000000e+00  0.0000000000000000e+00 -1.2577878938196885e-01 0.0000000000000000e+00  0.0000000000000000e+00 0.0000000000000000e+00 -1.1849856848225660e-02  0.0000000000000000e+00 0.0000000000000000e+00 -2.3902723582519714e-02  0.0000000000000000e+00 0.0000000000000000e+00 -3.6312223876551371e-02  0.0000000000000000e+00 0.0000000000000000e+00 -4.9258487285296915e-02  0.0000000000000000e+00 0.0000000000000000e+00 -6.2891837509908427e-02  0.0000000000000000e+00 0.0000000000000000e+00 -7.7306321345394224e-02  0.0000000000000000e+00 0.0000000000000000e+00 -9.2577294206797389e-02  0.0000000000000000e+00 0.0000000000000000e+00 -1.0874207695397191e-01  0.0000000000000000e+00 0.0000000000000000e+00 -1.2577731407468309e-01  -1.4290664975079734e-01 -1.4079798498531863e-02 0.0000000000000000e+00  -1.4083813634182379e-01 -2.8017461404666950e-02 0.0000000000000000e+00  -1.3741104698670586e-01 -4.1687735769641056e-02 0.0000000000000000e+00  -1.3266088389297298e-01 -5.4952385919197079e-02 0.0000000000000000e+00  -1.2663756637658324e-01 -6.7686940355786526e-02 0.0000000000000000e+00  -1.1939935647572586e-01 -7.9773306389070722e-02 0.0000000000000000e+00  -1.1099458076159036e-01 -9.1106169311181442e-02 0.0000000000000000e+00  -1.0153446444324044e-01 -1.0154626655359106e-01 0.0000000000000000e+00  -9.1085011235194621e-02 -1.1101083733668750e-01 0.0000000000000000e+00  -7.9763996610503096e-02 -1.1940193361925173e-01 0.0000000000000000e+00  -6.7695749716001202e-02 -1.2663255529164397e-01 0.0000000000000000e+00  -5.4939623009453410e-02 -1.3266348157463320e-01 0.0000000000000000e+00  -4.1685473678094304e-02 -1.3740113865736983e-01 0.0000000000000000e+00  -2.8014427138444688e-02 -1.4083331009174027e-01 0.0000000000000000e+00  -1.4083402869120449e-02 -1.4290748908865228e-01 0.0000000000000000e+00  -1.4290885773841305e-01 0.0000000000000000e+00 -1.4078874417209532e-02  -1.4084191891014158e-01 0.0000000000000000e+00 -2.8004439300650663e-02  -1.3741226179897514e-01 0.0000000000000000e+00 -4.1690945945741215e-02  -1.3267690396404017e-01 0.0000000000000000e+00 -5.4937631532623529e-02  -1.2664667757614043e-01 0.0000000000000000e+00 -6.7702908620743379e-02  -1.1939207384572448e-01 0.0000000000000000e+00 -7.9798487445716645e-02  -1.1099717102316946e-01 0.0000000000000000e+00 -9.1098262480405021e-02  -1.0154968638434847e-01 0.0000000000000000e+00 -1.0152979437548140e-01  -9.1083466330365473e-02 0.0000000000000000e+00 -1.1102034000662647e-01  -7.9768002371316801e-02 0.0000000000000000e+00 -1.1939582180394978e-01  -6.7699298109417411e-02 0.0000000000000000e+00 -1.2663314120263511e-01  -5.4963923588050155e-02 0.0000000000000000e+00 -1.3266854546709417e-01  -4.1685964475843038e-02 0.0000000000000000e+00 -1.3742276906141890e-01  -2.7991488759878953e-02 0.0000000000000000e+00 -1.4084517888564105e-01  -1.4079339540160963e-02 0.0000000000000000e+00 -1.4291449051770910e-01  0.0000000000000000e+00 -1.4290159011219150e-01 -1.4102804128322235e-02  0.0000000000000000e+00 -1.4082671099273633e-01 -2.8019389866644196e-02  0.0000000000000000e+00 -1.3739192619075730e-01 -4.1704219117789453e-02  0.0000000000000000e+00 -1.3265753829750176e-01 -5.4943601039609428e-02  0.0000000000000000e+00 -1.2662935791191285e-01 -6.7687927996212843e-02  0.0000000000000000e+00 -1.1940377552098613e-01 -7.9751711547016546e-02  0.0000000000000000e+00 -1.1099320941343695e-01 -9.1098743687864525e-02  0.0000000000000000e+00 -1.0154372124281111e-01 -1.0152130977750311e-01  0.0000000000000000e+00 -9.1095542980162453e-02 -1.1099124501651823e-01  0.0000000000000000e+00 -7.9767172166070197e-02 -1.1939400326138318e-01  0.0000000000000000e+00 -6.7689026226804172e-02 -1.2663388951892587e-01  0.0000000000000000e+00 -5.4940132421679805e-02 -1.3266426178252505e-01  0.0000000000000000e+00 -4.1684722012526966e-02 -1.3740789782284171e-01  0.0000000000000000e+00 -2.8027466783741819e-02 -1.4083778806125669e-01  0.0000000000000000e+00 -1.4095110912498852e-02 -1.4291023292393443e-01  -1.1333910368964445e-02 0.0000000000000000e+00 -4.4859987079694491e-02  -9.8647085509741550e-03 0.0000000000000000e+00 -5.5646639577792895e-02  -1.9147800259982466e-02 0.0000000000000000e+00 -5.3593493065669920e-02  -3.0818029139893104e-02 0.0000000000000000e+00 -1.1520758223739191e-02  -2.2495896102299337e-02 0.0000000000000000e+00 -2.4547135929857428e-02  -3.6871556604615198e-02 0.0000000000000000e+00 -2.3697271458006399e-02  -2.3087833853427782e-02 0.0000000000000000e+00 -4.0523702451216823e-02  -1.0968680918624929e-02 0.0000000000000000e+00 -8.3996086903002296e-02  -1.1607668748661095e-02 0.0000000000000000e+00 -6.7595045924642286e-02  -2.6330392351691212e-02 0.0000000000000000e+00 -1.0741869748030000e-01  -3.0479351991746489e-02 0.0000000000000000e+00 -1.2681203526010554e-01  -4.0781744976416220e-02 0.0000000000000000e+00 -1.1850196086297081e-01  -1.0949253500686248e-01 0.0000000000000000e+00 -1.1158253718334949e-02  -1.8171806557167221e-02 0.0000000000000000e+00 -1.2381228796380443e-01  -1.1502166392878843e-02 0.0000000000000000e+00 -1.1310704138515082e-01  -1.2239109101012944e-02 0.0000000000000000e+00 -9.9872406459896257e-02  -1.2529790853122111e-01 0.0000000000000000e+00 -3.8079216308045206e-02  -1.1935703000689594e-01 0.0000000000000000e+00 -2.5030429606647073e-02  -1.1028888158137250e-01 0.0000000000000000e+00 -3.4022884620513026e-02  -4.4143360227761774e-02 0.0000000000000000e+00 -5.2366643332199994e-02  -3.7149401262145457e-02 0.0000000000000000e+00 -3.8378254154083781e-02  -3.1201037876949077e-02 0.0000000000000000e+00 -5.1678088215518801e-02  -5.7554795165499072e-02 0.0000000000000000e+00 -3.1837467831478415e-02  -5.0116194859001886e-02 0.0000000000000000e+00 -4.1114844114595123e-02  -6.2731998190120541e-02 0.0000000000000000e+00 -4.1964973944150677e-02  -1.0826703161824609e-02 0.0000000000000000e+00 -3.2632377765868616e-02  -9.9958957284876308e-03 0.0000000000000000e+00 -1.9637306831351814e-02  -5.3957380930710140e-02 0.0000000000000000e+00 -1.1207044681829345e-01  -2.3809594251845614e-02 0.0000000000000000e+00 -9.2296228212417994e-02  -2.1071039630939970e-02 0.0000000000000000e+00 -7.7018621911226770e-02  -3.1832629116587539e-02 0.0000000000000000e+00 -7.9854823676782857e-02  -4.2359055739608992e-02 0.0000000000000000e+00 -8.1974940319762740e-02  -3.8374283736277659e-02 0.0000000000000000e+00 -9.6522630026547943e-02  -5.1927425689726893e-02 0.0000000000000000e+00 -9.3406661796053864e-02  -1.8633420093233145e-02 0.0000000000000000e+00 -1.1366701941884922e-02  -1.1275158957468084e-01 0.0000000000000000e+00 -4.5443925107058601e-02  -2.5805371007372915e-02 0.0000000000000000e+00 -6.5558779165530282e-02  -3.9341122428490194e-02 0.0000000000000000e+00 -6.6995651531876713e-02  -8.0720837045726301e-02 0.0000000000000000e+00 -8.0631839504245573e-02  -7.5299086730793344e-02 0.0000000000000000e+00 -6.4768474386613248e-02  -6.3811493377936124e-02 0.0000000000000000e+00 -7.2132161124488545e-02  -4.9765152084166896e-02 0.0000000000000000e+00 -1.9770760890610656e-02  -5.6770264306467019e-02 0.0000000000000000e+00 -1.0479246088922433e-02  -4.3757743058965806e-02 0.0000000000000000e+00 -1.0421850148271803e-02  -6.4948001623066992e-02 0.0000000000000000e+00 -8.7274121054475476e-02  -8.2809768143057197e-02 0.0000000000000000e+00 -1.0028368766053221e-01  -9.8154248013398726e-02 0.0000000000000000e+00 -7.7428896248333601e-02  -4.6072578122424809e-02 0.0000000000000000e+00 -2.9620075884446928e-02  -8.3106532094246330e-02 0.0000000000000000e+00 -2.5682429561284519e-02  -9.7233178630720049e-02 0.0000000000000000e+00 -3.7951384436755310e-02  -1.0050919756421715e-01 0.0000000000000000e+00 -2.4714708925119736e-02  -8.9598491384910939e-02 0.0000000000000000e+00 -1.3545771111155763e-02  -7.1831832171617704e-02 0.0000000000000000e+00 -1.1977366913122060e-02  -6.4731955459918042e-02 0.0000000000000000e+00 -2.2034928980693688e-02  -1.0741025087650323e-01 0.0000000000000000e+00 -6.7125223700443007e-02  -8.8817385378914232e-02 0.0000000000000000e+00 -6.0546012528318746e-02  -5.9603728317004938e-02 0.0000000000000000e+00 -5.5169523596274167e-02  -5.0221699962209779e-02 0.0000000000000000e+00 -6.3518981809156619e-02  -5.1281541882404677e-02 0.0000000000000000e+00 -7.7245052595929592e-02  -9.1984417838686192e-03 0.0000000000000000e+00 -8.6821801642827674e-03  -9.3725130765802189e-02 0.0000000000000000e+00 -9.0093831577187353e-02  -8.5703059761646466e-02 0.0000000000000000e+00 -7.0580612576776461e-02  -7.0692033203149138e-02 0.0000000000000000e+00 -3.5882482328775119e-02  -8.4797961598572655e-02 0.0000000000000000e+00 -4.3257658130287258e-02  -9.8358114342794248e-02 0.0000000000000000e+00 -5.1302595305177966e-02  -6.6796662250040134e-02 0.0000000000000000e+00 -1.0696815048989056e-01  -1.1426233592357680e-01 0.0000000000000000e+00 -5.7249765833736262e-02  -7.3173573629752450e-02 0.0000000000000000e+00 -5.0642469974218063e-02  -1.1773542778691221e-02 0.0000000000000000e+00 -1.3413514051152556e-01  -1.3057815131482248e-01 0.0000000000000000e+00 -1.2961593630054665e-02  -2.9255319459220604e-02 0.0000000000000000e+00 -3.0698808730554940e-02  -1.1698096939900187e-02 -6.1102671898413792e-02 -1.2941370054606177e-01  -1.3194782498425655e-02 -7.3276076333383539e-02 -1.2277808362137332e-01  -1.3869386343662746e-01 -1.0801694140583963e-02 -3.5612606531998714e-02  -3.7179789728982095e-02 -5.9920422010682560e-02 -1.2506051176207611e-01  -5.0226563575217723e-02 -6.6617619842901987e-02 -1.1683864775097565e-01  -3.6211166329894129e-02 -7.4629862376880740e-02 -1.1718794582839399e-01  -4.8550807753321892e-02 -4.9839955449004665e-02 -1.2558690856047802e-01  -5.9255845441544754e-02 -9.9279618434982994e-02 -8.5113850093893745e-02  -7.2499117443402553e-02 -8.6195441006988144e-02 -8.9037049589119829e-02  -7.2539594880797323e-02 -9.6906309854903505e-02 -7.7207749566786513e-02  -8.1995249730772768e-02 -8.7318745952630686e-02 -7.9167158340486932e-02  -3.2535374038780839e-02 -4.5815595905826713e-02 -1.3212746916852353e-01  -2.3822392546352881e-02 -6.8392584053878228e-02 -1.2398064539062434e-01  -2.3796043109664627e-02 -5.5933786340793670e-02 -1.3008395834382225e-01  -7.1985187907242121e-02 -3.2709079042283901e-02 -1.1985790135980774e-01  -6.3378049977868195e-02 -4.4084970055365262e-02 -1.2105831995925170e-01  -5.8274592340446879e-02 -3.5421420993282486e-02 -1.2635896388387813e-01  -8.8975296840552429e-02 -1.0699314176630516e-01 -3.5416971463939698e-02  -9.0123800186791475e-02 -1.0254061269400536e-01 -4.4512915258542445e-02  -9.6363027129834980e-02 -9.9815812220945627e-02 -3.7002129251552572e-02  -7.4020073996442518e-02 -4.4443736383426892e-02 -1.1472754433547425e-01  -1.2922785083968177e-01 -6.1599068152392362e-02 -1.1119006777226119e-02  -1.3471968621800057e-01 -4.8280728173627246e-02 -1.1756732468216721e-02  -3.3938778405846567e-02 -1.3924229170279145e-01 -8.8328706568117001e-03  -4.2977994557021254e-02 -1.3613866981337294e-01 -1.5365362942430853e-02  -4.4524817502866770e-02 -3.4696960687586854e-02 -1.3202328668694810e-01  -6.4374487755698803e-02 -2.5445294330055511e-02 -1.2581266448312395e-01  -7.5615346262424915e-02 -1.5186662768579395e-02 -1.2112335341829909e-01  -6.0328068028418218e-02 -1.2955242797389750e-02 -1.2967062173420074e-01  -1.0946502127342506e-01 -8.3900284378527520e-02 -3.9936340648207780e-02  -1.1198645477341712e-01 -8.5715251731399406e-02 -2.7036578237141170e-02  -1.0431397773019165e-01 -9.3395996648890700e-02 -3.1841949166052923e-02  -1.1743549274565168e-01 -7.6053856401711153e-02 -3.2281441789416956e-02  -1.1930817579872525e-02 -2.7614834648647703e-02 -1.4040759410915604e-01  -1.3512600976763427e-02 -1.0966490969687019e-02 -1.4254389031353248e-01  -2.5268347263980123e-02 -1.7202458856179305e-02 -1.4030616069247051e-01  -8.0051685852707805e-02 -5.2242996332560090e-02 -1.0713695283441176e-01  -6.3962824958333220e-02 -5.6173104991282391e-02 -1.1561702074083273e-01  -1.1572174720750138e-01 -7.0724984014220893e-02 -4.7139159581261220e-02  -1.0548202353688015e-01 -8.0755571961058537e-02 -5.4472269152036651e-02  -9.2251270770775801e-02 -4.1707822271596445e-02 -1.0182141960185999e-01  -1.0093847324857785e-01 -4.3988554329562918e-02 -9.2160643101605197e-02  -9.1031744232894063e-02 -5.4132495167501321e-02 -9.6951145459214239e-02  -5.2424169340894236e-02 -2.3781747918322164e-02 -1.3154924863010259e-01  -8.5611404121140197e-02 -7.7839612348600415e-02 -8.5014178646454927e-02  -7.8761745418623449e-02 -7.3035482325709222e-02 -9.5286626465632795e-02  -8.5003102475866815e-02 -9.2826619219689877e-02 -6.9094980230242228e-02  -2.6973938689454344e-02 -3.2175106242681696e-02 -1.3731164542732352e-01  -1.4714295761021286e-02 -4.4413193775186897e-02 -1.3575008353312437e-01  -3.3518120784885023e-02 -9.3268119886823694e-03 -1.3932893956014580e-01  -7.0170347948956227e-02 -1.2456683874156342e-01 -1.3337448758057542e-02  -8.2460558800963923e-02 -1.1694342248380390e-01 -1.2005487420333492e-02  -1.3378952347885495e-01 -1.2064758221850328e-02 -5.0734403564501679e-02  -1.3657423864297752e-01 -2.2851293785035243e-02 -3.7986938337569956e-02  -7.8314606171108095e-02 -1.0216890626589153e-01 -6.3595262009908352e-02  -1.3032260882997829e-01 -5.5543006636977449e-02 -2.3424539573727993e-02  -1.2788062428474553e-01 -1.8384003727264498e-02 -6.2686867361703799e-02  -1.3062490402425656e-01 -2.8068764992757692e-02 -5.2606564414891671e-02  -7.0484755748195044e-02 -6.6596419495815490e-02 -1.0588683939686648e-01  -6.9198834831631889e-02 -7.7528258394565328e-02 -9.9071634328468883e-02  -6.0028127922914072e-02 -7.4286079760870816e-02 -1.0720035879533694e-01  -1.0549236214575074e-01 -1.3664118048554013e-02 -9.6455361844574983e-02  -1.1599475219404164e-01 -1.3950202886453081e-02 -8.3494533869512153e-02  -3.7356101900464934e-02 -2.1218684256476907e-02 -1.3701761490636344e-01  -4.6877857195668851e-02 -1.0999191492509892e-02 -1.3529105376007505e-01  -6.5892935263176883e-02 -1.0659071674294711e-01 -7.0078422616036251e-02  -8.7959328356773350e-02 -9.8578366712559831e-02 -5.6231069716635898e-02  -9.5975581383036246e-02 -8.7477074948693195e-02 -6.1257283075299720e-02  -1.0019220636315106e-01 -7.7852006937345342e-02 -6.7211622407146787e-02  -1.0839571066829126e-01 -6.9550417317646232e-02 -6.3472440604828595e-02  -1.1073216188300733e-02 -9.8848320536211884e-02 -1.0356139679679274e-01  -1.4754815404586818e-02 -1.0796267106425661e-01 -9.3507205096902926e-02  -1.3821105915259288e-01 -3.0039974609866790e-02 -2.4769944375756806e-02  -1.4109659254988546e-01 -2.3567083978222027e-02 -1.2499683810517458e-02  -1.3854354619590264e-01 -3.5789586055399898e-02 -1.2000670899488509e-02  -1.4035068400277312e-01 -1.6258578041944593e-02 -2.5629868559554295e-02  -1.0966148294680396e-01 -4.4891124830001211e-02 -8.1093955815249447e-02  -1.0038856246888639e-01 -5.6261047667422820e-02 -8.5867002788191343e-02  -1.3370595615407543e-01 -3.6558412585449243e-02 -3.7467751494377241e-02  -1.0047352273916586e-02 -1.1614553864055259e-01 -8.3833773682496088e-02  -2.4912288838483690e-02 -1.1578455230486651e-01 -8.1174349938603507e-02  -4.8732295813958694e-02 -8.0688860496745229e-02 -1.0829157686916241e-01  -9.8184717607689626e-02 -6.9565235067873613e-02 -7.8337919017466659e-02  -8.9312411484878965e-02 -6.5977502213577136e-02 -9.1030971808482505e-02  -1.6314593645860142e-02 -1.2353106072962936e-01 -7.1343606753676125e-02  -3.2006477382644831e-02 -1.2209157566223289e-01 -6.8442399100946405e-02  -2.4186478154310409e-02 -1.2901140170521272e-01 -5.8188461698127823e-02  -9.1583360504325667e-02 -8.2475182979412656e-02 -7.3668765906521577e-02  -8.1944987754735729e-02 -6.3067323161337896e-02 -9.9619598003759233e-02  -1.3488866692211715e-01 -4.2727566837841569e-02 -2.4437767093576673e-02  -1.7229460832994883e-02 -1.3513958170881099e-01 -4.5331878364434620e-02  -3.2088539520055165e-02 -1.3265101583868460e-01 -4.4593360281108406e-02  -2.5763392809861028e-02 -1.3745085165902027e-01 -3.2523248463617642e-02  -4.2342901713659356e-02 -1.3366523397436997e-01 -3.0892952407689040e-02  -3.7981616721480822e-02 -1.1430069540041055e-01 -7.8159727506403279e-02  -3.1278139805328106e-02 -1.0750465354394710e-01 -8.9889205923152860e-02  -1.2409398513977941e-01 -6.8308459744867836e-02 -2.3486421794810728e-02  -1.2394787408376899e-01 -6.3587515441372033e-02 -3.4801711276240169e-02  -1.2156726243512565e-01 -2.1764923003265112e-02 -7.3279791927980967e-02  -1.2405882110312616e-01 -3.0680091147438929e-02 -6.5484274569380094e-02  -1.1609381575845275e-01 -3.0950436275792730e-02 -7.8636084128922493e-02  -1.1857781973279383e-01 -4.4867336224382430e-02 -6.7417187324302075e-02  -1.1727220865285970e-01 -8.0604555790588867e-02 -1.9228098383846353e-02  -1.2254927090813968e-01 -7.4069287100518064e-02 -1.0694266354990163e-02  -1.1635823721949584e-01 -8.3688311090033954e-02 -8.8351165304266146e-03  -5.9861501443046326e-02 -8.5956033813247706e-02 -9.8184282522590247e-02  -1.2995232754627820e-01 -4.9673245210674705e-02 -3.5540162035260434e-02  -1.0946252535716135e-01 -9.1299828841403002e-02 -1.7390635237251921e-02  -5.1524665867601141e-02 -1.3368075992216449e-01 -9.6223954922163117e-03  -1.2290951857273524e-01 -5.8856014896356806e-02 -4.5254641501361742e-02  -3.7304762871352599e-02 -8.7138898053051667e-02 -1.0783985501557479e-01  -2.3742053110292771e-02 -8.1599806623342624e-02 -1.1573690754377232e-01  -2.7577097914514015e-02 -9.1560047680602899e-02 -1.0711456233336107e-01  -3.7308462904312924e-02 -9.9046712525518041e-02 -9.7017567656282749e-02  -2.3408843429261837e-02 -9.9713736122422320e-02 -1.0062679555476134e-01  -1.0196291904762902e-01 -2.9630412222494924e-02 -9.6657062444749198e-02  -9.7304089486030948e-02 -1.9677518171707143e-02 -1.0375142800583838e-01  -1.2813235761572392e-01 -4.4113893358014619e-02 -4.7499657657490646e-02  -8.8175682555780024e-02 -1.4036690180728244e-02 -1.1246601901752987e-01  -9.1285050184410382e-02 -2.8461674169541342e-02 -1.0712362260600836e-01  -9.5819166918672163e-02 -8.8521537818109595e-03 -1.0659510987706809e-01  -1.2526772925092150e-01 -3.9126502818847407e-02 -5.8281100002227089e-02  -1.2288715520859296e-01 -5.0288015513300470e-02 -5.4683698704591603e-02  -7.5290755997732606e-02 -1.1996613528822157e-01 -2.3610696374368242e-02  -8.0784824635655075e-02 -1.1383379639989859e-01 -3.3665376016522780e-02  -8.6090971087704110e-02 -1.1258920031551146e-01 -2.3034085914799898e-02  -7.1199291704687862e-02 -1.1860175445361754e-01 -3.8480111817952210e-02  -7.0273770814961722e-02 -1.103989