<?xml version="1.0"?>
<VTKFile type="UnstructuredGrid"  version="0.1"  >
<UnstructuredGrid>
<Piece  NumberOfPoints="597" NumberOfCells="2124">
<Points>
<DataArray  type="Float64"  NumberOfComponents="3"  format="ascii">0 0 0  1 0 0  0 1 0  0 0 1  0.09999999999981467 0 0  0.1999999999995579 0 0  0.2999999999992664 0 0  0.3999999999989749 0 0  0.4999999999986943 0 0  0.5999999999989468 0 0  0.69999999999921 0 0  0.7999999999994734 0 0  0.8999999999997368 0 0  0 0.09999999999981467 0  0 0.1999999999995579 0  0 0.2999999999992664 0  0 0.3999999999989749 0  0 0.4999999999986943 0  0 0.5999999999989468 0  0 0.69999999999921 0  0 0.7999999999994734 0  0 0.8999999999997368 0  0 0 0.09999999999981467  0 0 0.1999999999995579  0 0 0.2999999999992664  0 0 0.3999999999989749  0 0 0.4999999999986943  0 0 0.5999999999989468  0 0 0.69999999999921  0 0 0.7999999999994734  0 0 0.8999999999997368  0.9951847266502585 0.09801714055230534 0  0.9807852803038259 0.1950903225158687 0  0.9569403355024331 0.2902846780119318 0  0.9238795320817892 0.3826834334019886 0  0.8819212636904032 0.4713967380569389 0  0.8314696113679687 0.5555702344182949 0  0.7730104520841969 0.6343932857215511 0  0.7071067795733449 0.7071067827997501 0  0.634393282646958 0.7730104546074502 0  0.5555702316245595 0.8314696132346829 0  0.471396735522105 0.8819212650453002 0  0.3826834312318057 0.9238795329807084 0  0.2902846763682919 0.9569403360010258 0  0.1950903214145686 0.980785280522888 0  0.0980171400302339 0.995184726701678 0  0.9951847266502585 0 0.09801714055230534  0.9807852803038259 0 0.1950903225158687  0.9569403355024331 0 0.2902846780119318  0.9238795320817892 0 0.3826834334019886  0.8819212636904032 0 0.4713967380569389  0.8314696113679687 0 0.5555702344182949  0.7730104520841969 0 0.6343932857215511  0.7071067795733449 0 0.7071067827997501  0.634393282646958 0 0.7730104546074502  0.5555702316245595 0 0.8314696132346829  0.471396735522105 0 0.8819212650453002  0.3826834312318057 0 0.9238795329807084  0.2902846763682919 0 0.9569403360010258  0.1950903214145686 0 0.980785280522888  0.0980171400302339 0 0.995184726701678  0 0.9951847266502585 0.09801714055230534  0 0.9807852803038259 0.1950903225158687  0 0.9569403355024331 0.2902846780119318  0 0.9238795320817892 0.3826834334019886  0 0.8819212636904032 0.4713967380569389  0 0.8314696113679687 0.5555702344182949  0 0.7730104520841969 0.6343932857215511  0 0.7071067795733449 0.7071067827997501  0 0.634393282646958 0.7730104546074502  0 0.5555702316245595 0.8314696132346829  0 0.471396735522105 0.8819212650453002  0 0.3826834312318057 0.9238795329807084  0 0.2902846763682919 0.9569403360010258  0 0.1950903214145686 0.980785280522888  0 0.0980171400302339 0.995184726701678  0.09240154966779951 0 0.3658235692199516  0.07916357488785433 0 0.4469199030523527  0.1536813483092524 0 0.4301465381022301  0.2555379022644893 0 0.09556049568595243  0.1864593291765566 0 0.2034979771761179  0.301651764011142 0 0.1939053326038485  0.1881720785854029 0 0.3302588474155368  0.08403438330774521 0 0.6437268466185475  0.09138388892861184 0 0.5324072873297468  0.1930859140709486 0 0.7878139522981464  0.2165176696171426 0 0.900824597607195  0.292033522918994 0 0.8485491372975176  0.8037370491763215 0 0.0819245024222376  0.13014171782822 0 0.8868491929551598  0.08390174260734276 0 0.8253161934654943  0.0912526277304111 0 0.7448765232291942  0.8893622411880446 0 0.270275215225845  0.8593018882538136 0 0.1801969264281539  0.8024703672696746 0 0.2475353432181931  0.3476914857890963 0 0.4125368919261175  0.2997235777995208 0 0.3096876237048341  0.2490386282757974 0 0.412527605219857  0.4554126154120848 0 0.2518749964366375  0.39715257119151 0 0.3258159451822259  0.4883877361055989 0 0.3266984434363212  0.08966539318254355 0 0.2701713986717769  0.08377502767602918 0 0.164580120521203  0.3869558528229924 0 0.8037364723405749  0.1791913905804899 0 0.6945879747883159  0.1628348997531483 0 0.5951991143072877  0.2434219731662663 0 0.6106761106298939  0.3204481765543245 0 0.6201302437713152  0.2846206283417919 0 0.7159219267704837  0.3832252637688779 0 0.6893291551637116  0.1561812521325313 0 0.09527745928338882  0.8122499659106144 0 0.3273472587872134  0.2026260329838435 0 0.5147603927306801  0.3051207491780334 0 0.5196560474248884  0.5886190882535927 0 0.5879547877726188  0.5628286668856228 0 0.4841066442899339  0.4793970684942127 0 0.5419440173923771  0.4015076433379883 0 0.1595345792024606  0.4550663848726773 0 0.08400234057127416  0.3574412370957718 0 0.08514557536940835  0.4777735346904641 0 0.6420237002140541  0.5886050303809575 0 0.712791733722679  0.7032448955145116 0 0.5547060123784804  0.3710082806848816 0 0.2384994559961529  0.6343947712920404 0 0.1960314230465952  0.7205780420889929 0 0.2811987241304542  0.745939430962431 0 0.1834190974026157  0.6797060130425652 0 0.1027709852058109  0.5617353506566283 0 0.09368054426051139  0.5099863318045709 0 0.1736146479983669  0.767516113391133 0 0.4796577434100839  0.6547738563668709 0 0.4463662193850245  0.4595209371514753 0 0.4253249285837939  0.3873123962753185 0 0.4899626124422253  0.3876250349852705 0 0.5839247669697213  0.07755778095112512 0 0.07322480571131515  0.6662618639536104 0 0.6404224526940073  0.6281317226641706 0 0.5172795154653362  0.5467991787548994 0 0.2775110285514451  0.6382784164401777 0 0.32558335190295  0.7209625386664502 0 0.3760300013763025  0.4777689774710401 0 0.7650512433185178  0.8150026845526732 0 0.4083495007681245  0.5566757769165783 0 0.3852531587967231  0.08307535298787436 0 0.9466352209487393  0.9264479164039098 0 0.09196696687313166  0.2397696045481275 0 0.2516617606603849  0.08142379610690136 0.4255946222877561 0.9012432429190713  0.09186671735860186 0.5103340042487068 0.8550553843753256  0.9658493887414453 0.07517233868428744 0.2479598309495128  0.2588669386047153 0.4173196613385269 0.8711097567802347  0.349931687668115 0.4640670731596268 0.8137503091088829  0.2521091443082024 0.5198490772623717 0.8162094806026494  0.3381706165708041 0.3470207631890471 0.8747669541105296  0.4127313919422814 0.6915412096022421 0.5928098797483512  0.505094034203222 0.6002477622197614 0.6201472732847281  0.5053541985510116 0.6749299798537994 0.5376677936248502  0.5711974176563547 0.6081084457949028 0.5513053856218164  0.2265606352222516 0.3190644824037021 0.9202543858282597  0.1657801920411619 0.4763492767397394 0.8634861287110075  0.1656568208377873 0.3895779149708851 0.9059728836322062  0.501344556404584 0.2277556352228774 0.8347340932223356  0.4415367071350051 0.3068779784495727 0.8431318061816198  0.4059460944519277 0.2465220798785426 0.8800196773547647  0.6196876017566089 0.7450935593761555 0.2466229186537899  0.627698728320387 0.714123017011242 0.3098751733194038  0.6711018023358704 0.69515091935471 0.2576578549585624  0.5155953815884997 0.3094099022200982 0.7990162169147497  0.899989132227882 0.4289906012996104 0.07737328911389559  0.9382293875188548 0.3361973257557999 0.08183504475860598  0.2363183186651487 0.9697312279355392 0.06144101097726593  0.2993323950146074 0.9481462475789452 0.106858834434898  0.3101615066201264 0.2414838162804179 0.9195028038487859  0.4482922838801319 0.1771577048152243 0.8761559084079369  0.5266326972169642 0.1057746683003005 0.8434866458741044  0.4200451415729211 0.09020206018716082 0.9030092288448531  0.7623891105001969 0.5843698709159578 0.2779832695620105  0.7799115838824263 0.596929282445646 0.1881843592994147  0.7264879983305693 0.6504346235700518 0.2216979673856474  0.8178732076005444 0.5297083005156807 0.2247054353013872  0.08303734348179403 0.1922053315992417 0.9778353184930026  0.09408269694107538 0.07627092328721888 0.9926385003601306  0.1760515877647063 0.1196852712822077 0.9770779264130525  0.5576143975194612 0.3637809431371279 0.7461431558952143  0.4455986119305068 0.3912097319557027 0.8052309126385754  0.8060332204752099 0.4925189261569118 0.3282309474556054  0.7346451337886817 0.5624574787189985 0.379391765901261  0.642508165502269 0.2904084282097414 0.7091164940174894  0.7030254185009037 0.306273768786429 0.6418345888895255  0.6340141384684502 0.3769833468372913 0.6752108029567235  0.365152486570974 0.1655128603952953 0.9161163433728284  0.5962792236506059 0.542109883053058 0.5920877993497508  0.5485896415631504 0.5085733599282969 0.6636283167111371  0.5920678220815722 0.6464708649476155 0.4811768020483384  0.1878625042731283 0.2239323962641036 0.9563273296270713  0.1024217313722561 0.3092935774102874 0.9454349644028699  0.2334505071908325 0.06487815783086033 0.9702018786463037  0.4887206245964966 0.8674866792832123 0.09283863613924619  0.5742874233407752 0.8143734795796027 0.08360497084518105  0.9317006522490203 0.08389294215323394 0.3534060962343804  0.951181716421189 0.1590863374964037 0.2644709427669156  0.5455072387620422 0.7115493400103802 0.4428536882413925  0.9076276342048921 0.3867895805147213 0.1631131448807132  0.8905082493452895 0.127913990281725 0.4366154703376809  0.9096700297655037 0.1954608695184058 0.3664634844476816  0.4909557921631998 0.4638599224188366 0.7374255098075979  0.4820557633059458 0.5398846258057163 0.6900339353119844  0.4181956098394346 0.5173376920524271 0.7466419116905315  0.7346402167242096 0.09513558808181954 0.67175365414096  0.8078263850243458 0.09713596463829366 0.5813614504181416  0.2601336813274003 0.1475738587985683 0.954228706358363  0.3264256065230105 0.07648882390671821 0.9421230191559125  0.4590556119879899 0.7423895417623142 0.4879812633537003  0.6126112913498895 0.686574629053208 0.3915644065170771  0.6684671903139626 0.6091898762120843 0.4266606499250449  0.6977699223891808 0.542245960309553 0.4680667195357594  0.7549550374165268 0.4843931863016896 0.4420476586793638  0.07712060794257616 0.6883652307079324 0.7212528828247291  0.1027005936763692 0.7518617879958691 0.6512729380299598  0.9625479306552708 0.2091983633587219 0.1724457188778192  0.9825939555666527 0.1641265719497667 0.08701486576382911  0.964839163020035 0.2492141217550538 0.08353269432177644  0.97740960683
[...]
<PointData  Vectors="Solid displacement [m]"> 
<DataArray  type="Float64"  Name="Solid displacement [m]"  NumberOfComponents="3" format="ascii">0.0000000000000000e+00 0.0000000000000000e+00 0.0000000000000000e+00  -1.4679500364427997e-01 0.0000000000000000e+00 0.0000000000000000e+00  0.0000000000000000e+00 -1.4679407809647049e-01 0.0000000000000000e+00  0.0000000000000000e+00 0.0000000000000000e+00 -1.4679908813899892e-01  -1.2494131062589458e-02 0.0000000000000000e+00 0.0000000000000000e+00  -2.5172764953886210e-02 0.0000000000000000e+00 0.0000000000000000e+00  -3.8165123070215322e-02 0.0000000000000000e+00 0.0000000000000000e+00  -5.1622706867445342e-02 0.0000000000000000e+00 0.0000000000000000e+00  -6.5680920092639761e-02 0.0000000000000000e+00 0.0000000000000000e+00  -8.0418892065782302e-02 0.0000000000000000e+00 0.0000000000000000e+00  -9.5900785419004486e-02 0.0000000000000000e+00 0.0000000000000000e+00  -1.1214328313532103e-01 0.0000000000000000e+00 0.0000000000000000e+00  -1.2912698110872300e-01 0.0000000000000000e+00 0.0000000000000000e+00  0.0000000000000000e+00 -1.2495982524365684e-02 0.0000000000000000e+00  0.0000000000000000e+00 -2.5161124938443608e-02 0.0000000000000000e+00  0.0000000000000000e+00 -3.8152212210575159e-02 0.0000000000000000e+00  0.0000000000000000e+00 -5.1620066360349347e-02 0.0000000000000000e+00  0.0000000000000000e+00 -6.5677596374843189e-02 0.0000000000000000e+00  0.0000000000000000e+00 -8.0417191538026456e-02 0.0000000000000000e+00  0.0000000000000000e+00 -9.5898339122409054e-02 0.0000000000000000e+00  0.0000000000000000e+00 -1.1214527555668666e-01 0.0000000000000000e+00  0.0000000000000000e+00 -1.2913388043251817e-01 0.0000000000000000e+00  0.0000000000000000e+00 0.0000000000000000e+00 -1.2494874554299222e-02  0.0000000000000000e+00 0.0000000000000000e+00 -2.5169174541747576e-02  0.0000000000000000e+00 0.0000000000000000e+00 -3.8157794171608236e-02  0.0000000000000000e+00 0.0000000000000000e+00 -5.1617677186095660e-02  0.0000000000000000e+00 0.0000000000000000e+00 -6.5677589291373045e-02  0.0000000000000000e+00 0.0000000000000000e+00 -8.0415979230097259e-02  0.0000000000000000e+00 0.0000000000000000e+00 -9.5894083229606214e-02  0.0000000000000000e+00 0.0000000000000000e+00 -1.1214065461297405e-01  0.0000000000000000e+00 0.0000000000000000e+00 -1.2913280701112018e-01  -1.4608926979164380e-01 -1.4392608393103251e-02 0.0000000000000000e+00  -1.4397480193548648e-01 -2.8640967836213324e-02 0.0000000000000000e+00  -1.4047187580457618e-01 -4.2615625556135808e-02 0.0000000000000000e+00  -1.3561631710964667e-01 -5.6176317981447156e-02 0.0000000000000000e+00  -1.2945849767145542e-01 -6.9195203571404892e-02 0.0000000000000000e+00  -1.2205798554705474e-01 -8.1550846334663210e-02 0.0000000000000000e+00  -1.1346762563813877e-01 -9.3133801773736924e-02 0.0000000000000000e+00  -1.0379624534608346e-01 -1.0380660612477620e-01 0.0000000000000000e+00  -9.3115325139019878e-02 -1.1348177139833841e-01 0.0000000000000000e+00  -8.1542522649286922e-02 -1.2206019693432876e-01 0.0000000000000000e+00  -6.9202539092613993e-02 -1.2945406903409182e-01 0.0000000000000000e+00  -5.6165123221684238e-02 -1.3561835382204496e-01 0.0000000000000000e+00  -4.2613608593196371e-02 -1.4046310283195892e-01 0.0000000000000000e+00  -2.8638344006310056e-02 -1.4397046835965804e-01 0.0000000000000000e+00  -1.4395706767710886e-02 -1.4608981881636043e-01 0.0000000000000000e+00  -1.4609112874149577e-01 0.0000000000000000e+00 -1.4391842962340902e-02  -1.4397797980693713e-01 0.0000000000000000e+00 -2.8629748738956788e-02  -1.4047286035144674e-01 0.0000000000000000e+00 -4.2618320648418175e-02  -1.3563013877085645e-01 0.0000000000000000e+00 -5.6163429614779159e-02  -1.2946647785841442e-01 0.0000000000000000e+00 -6.9208831557412170e-02  -1.2205185652237542e-01 0.0000000000000000e+00 -8.1572478124314299e-02  -1.1347006771992064e-01 0.0000000000000000e+00 -9.3126946457525561e-02  -1.0380963935969903e-01 0.0000000000000000e+00 -1.0379244730233472e-01  -9.3114265384979022e-02 0.0000000000000000e+00 -1.1349007194042934e-01  -8.1546250731575690e-02 0.0000000000000000e+00 -1.2205515992054100e-01  -6.9205800536780229e-02 0.0000000000000000e+00 -1.2945483057268825e-01  -5.6186248436351047e-02 0.0000000000000000e+00 -1.3562299435213715e-01  -4.2614141723167825e-02 0.0000000000000000e+00 -1.4048207291555873e-01  -2.8618608817204381e-02 0.0000000000000000e+00 -1.4398100099235908e-01  -1.4392213202386029e-02 0.0000000000000000e+00 -1.4609613614662859e-01  0.0000000000000000e+00 -1.4608473079478976e-01 -1.4412463351641230e-02  0.0000000000000000e+00 -1.4396473010559707e-01 -2.8642600972145618e-02  0.0000000000000000e+00 -1.4045516951598958e-01 -4.2629693556744321e-02  0.0000000000000000e+00 -1.3561327944143320e-01 -5.6168528156856620e-02  0.0000000000000000e+00 -1.2945135749556327e-01 -6.9195860529387990e-02  0.0000000000000000e+00 -1.2206175598149356e-01 -8.1532036182120640e-02  0.0000000000000000e+00 -1.1346648047869991e-01 -9.3127170754226149e-02  0.0000000000000000e+00 -1.0380435405175556e-01 -1.0378488093793069e-01  0.0000000000000000e+00 -9.3124619061827493e-02 -1.1346473664418254e-01  0.0000000000000000e+00 -8.1545490851523877e-02 -1.2205334200524720e-01  0.0000000000000000e+00 -6.9196935446842911e-02 -1.2945523491386404e-01  0.0000000000000000e+00 -5.6165771484147566e-02 -1.3561906642103033e-01  0.0000000000000000e+00 -4.2613169629405957e-02 -1.4046900793941103e-01  0.0000000000000000e+00 -2.8649747650397447e-02 -1.4397452934841362e-01  0.0000000000000000e+00 -1.4405877279526549e-02 -1.4609244414027889e-01  -1.1884238613570288e-02 0.0000000000000000e+00 -4.7040668106277272e-02  -1.0317218282142332e-02 0.0000000000000000e+00 -5.8207468826850461e-02  -2.0026724301753823e-02 0.0000000000000000e+00 -5.6053831890408287e-02  -3.2403289792007628e-02 0.0000000000000000e+00 -1.2114077352598658e-02  -2.3651525150672502e-02 0.0000000000000000e+00 -2.5809062947859496e-02  -3.8684061222680019e-02 0.0000000000000000e+00 -2.4862975138610667e-02  -2.4207938800541430e-02 0.0000000000000000e+00 -4.2489333562969571e-02  -1.1385797233637205e-02 0.0000000000000000e+00 -8.7195584685482302e-02  -1.2102482204245587e-02 0.0000000000000000e+00 -7.0482382881959196e-02  -2.7139214355348121e-02 0.0000000000000000e+00 -1.1072063405836707e-01  -3.1256364537394735e-02 0.0000000000000000e+00 -1.3004445830098491e-01  -4.1874781474906850e-02 0.0000000000000000e+00 -1.2167728675718741e-01  -1.1287424370144657e-01 0.0000000000000000e+00 -1.1503247718351832e-02  -1.8659173183830861e-02 0.0000000000000000e+00 -1.2713620863924965e-01  -1.1845362987579282e-02 0.0000000000000000e+00 -1.1648837109120119e-01  -1.2648781092035261e-02 0.0000000000000000e+00 -1.0322142376734769e-01  -1.2847534184306997e-01 0.0000000000000000e+00 -3.9044621742314205e-02  -1.2266092023088827e-01 0.0000000000000000e+00 -2.5723127937235329e-02  -1.1353412664276628e-01 0.0000000000000000e+00 -3.5023613822824574e-02  -4.6028988226445543e-02 0.0000000000000000e+00 -5.4605136203955532e-02  -3.8887667172209081e-02 0.0000000000000000e+00 -4.0175173405145467e-02  -3.2604012368806494e-02 0.0000000000000000e+00 -5.4002926346249244e-02  -6.0058067129886643e-02 0.0000000000000000e+00 -3.3221218655938842e-02  -5.2308768424169094e-02 0.0000000000000000e+00 -4.2913537167447786e-02  -6.5288080011136437e-02 0.0000000000000000e+00 -4.3674733085339403e-02  -1.1381401092324798e-02 0.0000000000000000e+00 -3.4302666362997829e-02  -1.0528221945263646e-02 0.0000000000000000e+00 -2.0683229993688185e-02  -5.5416625485754940e-02 0.0000000000000000e+00 -1.1510179453649391e-01  -2.4643901581750262e-02 0.0000000000000000e+00 -9.5529937859259631e-02  -2.1903167262042902e-02 0.0000000000000000e+00 -8.0060689011890215e-02  -3.3033322826059509e-02 0.0000000000000000e+00 -8.2867618002935323e-02  -4.3880249661436554e-02 0.0000000000000000e+00 -8.4918390397150059e-02  -3.9625541128167054e-02 0.0000000000000000e+00 -9.9670381580159229e-02  -5.3577505828707087e-02 0.0000000000000000e+00 -9.6374451054406979e-02  -1.9626040239878517e-02 0.0000000000000000e+00 -1.1972388643641507e-02  -1.1588409221510643e-01 0.0000000000000000e+00 -4.6705850302800084e-02  -2.6894062562154663e-02 0.0000000000000000e+00 -6.8324427975274160e-02  -4.0918863940588156e-02 0.0000000000000000e+00 -6.9683521360191236e-02  -8.3125258594953871e-02 0.0000000000000000e+00 -8.3033194578839120e-02  -7.7851464303733436e-02 0.0000000000000000e+00 -6.6963639655396853e-02  -6.6028861375025144e-02 0.0000000000000000e+00 -7.4639290698413782e-02  -5.2093881278349213e-02 0.0000000000000000e+00 -2.0696360721909248e-02  -5.9364315819470832e-02 0.0000000000000000e+00 -1.0957989672478559e-02  -4.5897489097183872e-02 0.0000000000000000e+00 -1.0931654466469626e-02  -6.6977023433866231e-02 0.0000000000000000e+00 -9.0000776591357370e-02  -8.4928681468785627e-02 0.0000000000000000e+00 -1.0284933744625650e-01  -1.0079338462433701e-01 0.0000000000000000e+00 -7.9509624658866740e-02  -4.8213565394707898e-02 0.0000000000000000e+00 -3.0996062099674673e-02  -8.6216707357442274e-02 0.0000000000000000e+00 -2.6643208211157496e-02  -1.0039017831092338e-01 0.0000000000000000e+00 -3.9182485232158899e-02  -1.0379691571288975e-01 0.0000000000000000e+00 -2.5523075387909249e-02  -9.2857902383735327e-02 0.0000000000000000e+00 -1.4038764372219110e-02  -7.4812807053267816e-02 0.0000000000000000e+00 -1.2474726103753159e-02  -6.7499760259519787e-02 0.0000000000000000e+00 -2.2977313673052214e-02  -1.1025141888555955e-01 0.0000000000000000e+00 -6.8900880330299175e-02  -9.1623762137773984e-02 0.0000000000000000e+00 -6.2459379089864285e-02  -6.1934042228548918e-02 0.0000000000000000e+00 -5.7326226158206102e-02  -5.2187990452851891e-02 0.0000000000000000e+00 -6.6007893445923310e-02  -5.3116115848292254e-02 0.0000000000000000e+00 -8.0009215052420035e-02  -9.6977033559433583e-03 0.0000000000000000e+00 -9.1538911521088021e-03  -9.6125026506598599e-02 0.0000000000000000e+00 -9.2400087420354299e-02  -8.8327932912084448e-02 0.0000000000000000e+00 -7.2741843552080840e-02  -7.3494911983703490e-02 0.0000000000000000e+00 -3.7304428303768060e-02  -8.7771524142901430e-02 0.0000000000000000e+00 -4.4774254388396995e-02  -1.0137236245568496e-01 0.0000000000000000e+00 -5.2874451796655682e-02  -6.8574241676779404e-02 0.0000000000000000e+00 -1.0981366820003524e-01  -1.1725097621597204e-01 0.0000000000000000e+00 -5.8747196022464525e-02  -7.5870264060943035e-02 0.0000000000000000e+00 -5.2508561652283146e-02  -1.2060789494874786e-02 0.0000000000000000e+00 -1.3741150995493348e-01  -1.3388047387969701e-01 0.0000000000000000e+00 -1.3289533578386553e-02  -3.0702237105986348e-02 0.0000000000000000e+00 -3.2218580694848689e-02  -1.1957618502510361e-02 -6.2465410315983468e-02 -1.3229607144556751e-01  -1.3488137671887331e-02 -7.4909091423708676e-02 -1.2551323213004581e-01  -1.4178253651902628e-01 -1.1041070246286916e-02 -3.6404702391354099e-02  -3.8006598452818389e-02 -6.1255959711815251e-02 -1.2785021671874788e-01  -5.1348708639120708e-02 -6.8104805267106397e-02 -1.1944281719299760e-01  -3.7016114088016139e-02 -7.6295053362101628e-02 -1.1980047033131203e-01  -4.9633617183920800e-02 -5.0948736128828866e-02 -1.2838826756038421e-01  -6.0577209776499150e-02 -1.0149445660943970e-01 -8.7011237269604622e-02  -7.4118582872198552e-02 -8.8114898488857021e-02 -9.1022216765582670e-02  -7.4159421774170217e-02 -9.9066347873880883e-02 -7.8927116643981041e-02  -8.3825583301955622e-02 -8.9264124308106249e-02 -8.0930007975496723e-02  -3.3259662573070309e-02 -4.6836317999767986e-02 -1.3507303636111731e-01  -2.4350190560021232e-02 -6.9917431079474249e-02 -1.2674382672088730e-01  -2.4324636244840530e-02 -5.7181035279897839e-02 -1.3298279408284175e-01  -7.3589439702344772e-02 -3.3436980732701176e-02 -1.2252858259950866e-01  -6.4793652251502257e-02 -4.5064031776816220e-02 -1.2375660251065486e-01  -5.9575370824856214e-02 -3.6206940745802836e-02 -1.2917466137438482e-01  -9.0958306562206145e-02 -1.0937604876379668e-01 -3.6205219738653462e-02  -9.2132732750295779e-02 -1.0482524082676285e-01 -4.5501670081519466e-02  -9.8509839875139851e-02 -1.0203982873028869e-01 -3.7825640259081646e-02  -7.5671471407206078e-02 -4.5431568184101191e-02 -1.1728412504277543e-01  -1.3210717690830351e-01 -6.2971521046042478e-02 -1.1365262375695347e-02  -1.3772126868241383e-01 -4.9355453830461429e-02 -1.2017672864132281e-02  -3.4693964976832581e-02 -1.4234454314745729e-01 -9.0279988421010076e-03  -4.3935923226525099e-02 -1.3917234851815266e-01 -1.5704193654641714e-02  -4.5518625409375152e-02 -3.5466515911018390e-02 -1.3496595298546471e-01  -6.5808038937161265e-02 -2.6011080783879877e-02 -1.2861484586519725e-01  -7.7300595944784375e-02 -1.5525263372866116e-02 -1.2382074123273448e-01  -6.1669964520252418e-02 -1.3243392743747921e-02 -1.3255837692607639e-01  -1.1190474618981783e-01 -8.5771117180920800e-02 -4.0822694611249016e-02  -1.1448148783316522e-01 -8.7624629009674465e-02 -2.7636451387264255e-02  -1.0663826801333674e-01 -9.5476825473846449e-02 -3.2549964066719450e-02  -1.2005220480844435e-01 -7.7749488599202929e-02 -3.2998022209613800e-02  -1.2195382768828904e-02 -2.8227651675852377e-02 -1.4353580090806584e-01  -1.3813111907543122e-02 -1.1208490977081044e-02 -1.4571804151104481e-01  -2.5833088018668796e-02 -1.7583093626602007e-02 -1.4343103296521764e-01  -8.1837715363400149e-02 -5.3405830609742543e-02 -1.0952412559388702e-01  -6.5391099180100359e-02 -5.7424860182289754e-02 -1.1819378630434368e-01  -1.1830255910705534e-01 -7.2300175763228516e-02 -4.8187971912776746e-02  -1.0783288588683088e-01 -8.2556077951488588e-02 -5.5686561087381140e-02  -9.4307640907744267e-02 -4.2635874080665187e-02 -1.0409015340401033e-01  -1.0318880488584067e-01 -4.4966988691833083e-02 -9.4214077488311815e-02  -9.3060851847437689e-02 -5.5338464898429328e-02 -9.9111584297840671e-02  -5.3593505870586158e-02 -2.4309132583495784e-02 -1.3447946486469362e-01  -8.7519950237313071e-02 -7.9574252433810874e-02 -8.6908772571369974e-02  -8.0517964039833870e-02 -7.4661204185775071e-02 -9.7410017379294320e-02  -8.6898617170066972e-02 -9.4894713456391847e-02 -7.0633799573154063e-02  -2.7575108155652870e-02 -3.2888799142579479e-02 -1.4037211929375229e-01  -1.5040838931255764e-02 -4.5402577624487087e-02 -1.3877519286449111e-01  -3.4265426310482905e-02 -9.5328761500943406e-03 -1.4243038685091575e-01  -7.1734280130136302e-02 -1.2734111511588370e-01 -1.3633441124766048e-02  -8.4297679635419037e-02 -1.1954747255876759e-01 -1.2272804609629510e-02  -1.3676914855689890e-01 -1.2330545369079777e-02 -5.1866422183126717e-02  -1.3961792779992852e-01 -2.3359061283481447e-02 -3.8831384841851745e-02  -8.0061607644479255e-02 -1.0444552224252548e-01 -6.5011113731247600e-02  -1.3322671339506811e-01 -5.6779958964302615e-02 -2.3945894480005340e-02  -1.3072778893636644e-01 -1.8790884852861681e-02 -6.4084528768168197e-02  -1.3353431873790025e-01 -2.8693692632355761e-02 -5.3780779681979862e-02  -7.2056807737609085e-02 -6.8081749299054445e-02 -1.0824576841135146e-01  -7.0743538293719876e-02 -7.9254602478339528e-02 -1.0128042213459501e-01  -6.1368690901709932e-02 -7.5940955447156885e-02 -1.0959014306199846e-01  -1.0784183756950226e-01 -1.3967944544111297e-02 -9.8604592580624872e-02  -1.1857920014302284e-01 -1.4260570066914316e-02 -8.5352009230648007e-02  -3.8187872732985816e-02 -2.1686944608310596e-02 -1.4007043888366630e-01  -4.7921334813668566e-02 -1.1241692937364193e-02 -1.3830347187010919e-01  -6.7364543001360702e-02 -1.0896685617362266e-01 -7.1638141870715072e-02  -8.9919730823031410e-02 -1.0077577200808364e-01 -5.7482791306866343e-02  -9.8115274829739196e-02 -8.9425536106515671e-02 -6.2623140669217953e-02  -1.0242441403963926e-01 -7.9588098757504985e-02 -6.8708712928946661e-02  -1.1081196112288472e-01 -7.1100698706062296e-02 -6.4886757931482963e-02  -1.1320007619908444e-02 -1.0104959157130380e-01 -1.0586898757420382e-01  -1.5082236711367212e-02 -1.1036741345981349e-01 -9.5591717193081557e-02  -1.4129051259358996e-01 -3.0709041393192776e-02 -2.5320474474760588e-02  -1.4423915074395427e-01 -2.4092096264846839e-02 -1.2777339160086177e-02  -1.4162987938226021e-01 -3.6586175237559755e-02 -1.2267042239867096e-02  -1.4347686648724234e-01 -1.6619872548616240e-02 -2.6200821724405316e-02  -1.1210562651678985e-01 -4.5888877898087245e-02 -8.2901951569141527e-02  -1.0262595826400120e-01 -5.7513231047991269e-02 -8.7781703818406318e-02  -1.3668514796999662e-01 -3.7373258962247351e-02 -3.8301762120534509e-02  -1.0269104682856257e-02 -1.1873189177088073e-01 -8.5702443891223529e-02  -2.5467723101435493e-02 -1.1836460974132830e-01 -8.2983768132154870e-02  -4.9818928670379042e-02 -8.2488002647904873e-02 -1.1070645385647572e-01  -1.0037227907822260e-01 -7.1116618908343074e-02 -8.0083564805356847e-02  -9.1302258457378063e-02 -6.7447057721105888e-02 -9.3060822214419664e-02  -1.6678416857537650e-02 -1.2628343720067606e-01 -7.2934543279199349e-02  -3.2720084858630920e-02 -1.2481261413946945e-01 -6.9968367615159802e-02  -2.4725413156423938e-02 -1.3188724921622796e-01 -5.9485452404870152e-02  -9.3624794040779807e-02 -8.4313209308324949e-02 -7.5309403445484646e-02  -8.3772564262183838e-02 -6.4473033674636471e-02 -1.0183836455196042e-01  -1.3789437464628099e-01 -4.3679129713969561e-02 -2.4981517229118167e-02  -1.7613426417603790e-02 -1.3815252924831786e-01 -4.6341110332651883e-02  -3.2802989051386802e-02 -1.3560824624071507e-01 -4.5586990953968932e-02  -2.6336593711229397e-02 -1.4051568045896548e-01 -3.3246332240625176e-02  -4.3287596912282920e-02 -1.3664561072319717e-01 -3.1578753072610474e-02  -3.8826613120059410e-02 -1.1684797331614399e-01 -7.9902020041134142e-02  -3.1975064762546038e-02 -1.0990048402720583e-01 -9.1892736211858103e-02  -1.2685922217522175e-01 -6.9830941584208814e-02 -2.4008987683351760e-02  -1.2671032297922594e-01 -6.5003538883957296e-02 -3.5576085179216656e-02  -1.2427465585874914e-01 -2.2247650471657731e-02 -7.4910484540241740e-02  -1.2682273994450696e-01 -3.1361244103590598e-02 -6.6942199202487715e-02  -1.1868076567456931e-01 -3.1636738245597269e-02 -8.0387572661539911e-02  -1.2122121003605403e-01 -4.5865105182961351e-02 -6.8916896776970382e-02  -1.1988366969315531e-01 -8.2400999356826876e-02 -1.9654478200009613e-02  -1.2527832154483226e-01 -7.5720640051152102e-02 -1.0931301977831593e-02  -1.1894978054137442e-01 -8.5551030784583745e-02 -9.0311992312988917e-03  -6.1197793672269754e-02 -8.7870645508655226e-02 -1.0037527375278334e-01  -1.3284785586599726e-01 -5.0779284653756994e-02 -3.6331841440060179e-02  -1.1190122894995254e-01 -9.3332233098291237e-02 -1.7777154652039353e-02  -5.2674498602310479e-02 -1.3665826266078993e-01 -9.8354177628017271e-03  -1.2564859327508440e-01 -6.0165806694037927e-02 -4.6262013423641210e-02  -3.8133776531765626e-02 -8.9082113132403912e-02 -1.1024414444215673e-01  -2.4268446567201642e-02 -8.3419355699509784e-02 -1.1831528866025441e-01  -2.8189032664009038e-02 -9.3600078537543444e-02 -1.0950182095274112e-01  -3.8138427260750195e-02 -1.0125538408760418e-01 -9.9179971487705645e-02  -2.3928570397885759e-02 -1.0193494128836493e-01 -1.0287032436196610e-01  -1.0423619168161864e-01 -3.0288881635983835e-02 -9.8810402769488395e-02  -9.9471436115439668e-02 -2.0114017215727094e-02 -1.0606275512889332e-01  -1.3098591009377550e-01 -4.5096472996485053e-02 -4.8557973571036972e-02  -9.0141577500084683e-02 -1.4349211328901676e-02 -1.1496893710248257e-01  -9.3318944624750988e-02 -2.9093533174746149e-02 -1.0951062745485357e-01  -9.7952478156592290e-02 -9.0482815466785063e-03 -1.0896839321465045e-01  -1.2805802030494248e-01 -3.9997871225771357e-02 -5.9579251891895585e-02  -1.2562516627848763e-01 -5.1406195234848448e-02 -5.5900459450400994e-02  -7.6969163468995433e-02 -1.2263835652415962e-01 -2.4135275295514971e-02  -8.2586144513488932e-02 -1.1636939914558721e-01 -3.4413579529660399e-02  -8.8008744827315785e-02 -1.1509747951494848e-01 -2.3546023054376811e-02  -7.2787225840984696e-02 -1.2124443220604041e-01 -3.9335936884749338e-02  -7.1841243711593714e-02 -1.128598